                         Program Version 4.2.1 -  RELEASE  -
|  1> ! PBE0 Grid4 D3BJ def2-svp PAL3
|  2> ! TightOpt
|  3> ! CPCM(water)
|  4>
|  5> * xyz 0 2
|  6> 6       -1.216833426     -1.004596120      2.125595692
|  7> 6       -0.685415133     -1.815038572      0.938242812
|  8> 7        0.140651033     -1.018104661      0.018414532
|  9> 6        1.231062279     -0.317811110      0.724928897
| 10> 6        0.768848476      0.524178834      1.920788043
| 11> 6       -2.103313010      0.164995714      1.679244838
| 12> 7       -1.408017563      1.176525353      0.862537371
| 13> 6       -0.173081750      1.658125174      1.499167747
| 14> 6       -0.016503817     -0.400385491      2.838612179
| 15> 6        1.984670548      1.113682598      2.614175692
| 16> 6       -2.020042528     -1.916515428      3.037530324
| 17> 8        0.274074695     -0.624047754      3.986094714
| 18> 6       -2.384437978      2.292677083      0.820250357
| 19> 6        0.978442915     -1.978805297     -0.741872129
| 20> 6       -3.554864253      1.973932662     -0.060562601
| 21> 6       -4.746341530      1.449983339      0.437313668
| 22> 6       -5.737909840      1.012470183     -0.442422101
| 23> 6       -5.547425189      1.083826529     -1.824773955
| 24> 6       -4.370414085      1.619723427     -2.334237351
| 25> 6       -3.362558727      2.064436131     -1.459666745
| 26> 6        2.255910239     -1.242795561     -1.011112875
| 27> 6        2.236138842     -0.242435912     -2.007705846
| 28> 6        3.356896752      0.585825136     -2.193452451
| 29> 6        4.481363242      0.420316869     -1.394117958
| 30> 6        4.502395236     -0.581043039     -0.418511037
| 31> 6        3.394995709     -1.406269534     -0.222629587
| 32> 29      -0.991596788      0.345782147     -0.953550868
| 33> 1       -0.073886204     -2.653718191      1.315125734
| 34> 1       -1.521791869     -2.252899598      0.372170401
| 35> 1        1.769903977      0.320969064      0.009077165
| 36> 1        1.945185899     -1.079533479      1.083149324
| 37> 1       -2.503247486      0.668162418      2.577211295
| 38> 1       -2.967105328     -0.218018204      1.114857745
| 39> 1       -0.447926391      2.250208331      2.389711005
| 40> 1        0.339016427      2.335953348      0.799042429
| 41> 1        2.660155426      0.315556110      2.951568823
| 42> 1        2.535414168      1.774123584      1.929258385
| 43> 1        1.678734066      1.694425087      3.495062265
| 44> 1       -2.892307369     -2.322127715      2.505098035
| 45> 1       -1.399695972     -2.753659956      3.386027525
| 46> 1       -2.371654302     -1.364676173      3.919873968
| 47> 1       -1.833813732      3.217052717      0.597825211
| 48> 1       -2.867734449      2.403610886      1.802798991
| 49> 1        1.129973829     -2.894336040     -0.149905218
| 50> 1        0.437944530     -2.245908237     -1.660729550
| 51> 1       -4.899717089      1.377988408      1.516367493
| 52> 1       -6.668493714      0.602980144     -0.043184763
| 53> 1       -6.328856188      0.738554313     -2.504237889
| 54> 1       -4.248682055      1.725565018     -3.413385066
| 55> 1       -2.527695112      2.666180087     -1.853859460
| 56> 1        1.424559647     -0.234918084     -2.752647450
| 57> 1        3.363737369      1.333716346     -2.987342495
| 58> 1        5.353483265      1.060314036     -1.540734807
| 59> 1        5.391446095     -0.716739957      0.201309222
| 60> 1        3.412488894     -2.178826105      0.549202320
| 61> 17      -1.893831237      0.218861333     -3.347228038
| 62> 17      -0.140595257      1.828739921     -2.658144769
| 63> **                         ****END OF INPUT****
 Total Charge           Charge          ....    0
 Multiplicity           Mult            ....    2
 Number of Electrons    NEL             ....  251
Dispersion correction           -0.092398035
FINAL SINGLE POINT ENERGY     -3635.963963558012
Dispersion correction            ... done
Dispersion correction           -0.088954283
FINAL SINGLE POINT ENERGY     -3636.012430529740
Dispersion correction            ... done
Dispersion correction           -0.088688972
FINAL SINGLE POINT ENERGY     -3636.028415779134
Dispersion correction            ... done
FINAL SINGLE POINT ENERGY     -3636.041880208640
FINAL SINGLE POINT ENERGY     -3636.054551198069
FINAL SINGLE POINT ENERGY     -3636.067497333909
FINAL SINGLE POINT ENERGY     -3636.079022841032
FINAL SINGLE POINT ENERGY     -3636.088740492748
FINAL SINGLE POINT ENERGY     -3636.095859985047
FINAL SINGLE POINT ENERGY     -3636.100748952483
FINAL SINGLE POINT ENERGY     -3636.113277271828
FINAL SINGLE POINT ENERGY     -3636.113314036147
FINAL SINGLE POINT ENERGY     -3636.113331943270
FINAL SINGLE POINT ENERGY     -3636.113315666312
FINAL SINGLE POINT ENERGY     -3636.113289036545
FINAL SINGLE POINT ENERGY     -3636.113262734694
FINAL SINGLE POINT ENERGY     -3636.113270096526
Dispersion correction            ... done
Dispersion correction           -0.090722025
FINAL SINGLE POINT ENERGY     -3636.113271046937
Dispersion correction            ... done
Dispersion correction           -0.090715437
FINAL SINGLE POINT ENERGY     -3636.113272894736
Dispersion correction            ... done
                    ***********************HURRAY********************

CARTESIAN COORDINATES (ANGSTROEM)
---------------------------------
  C     -1.338261   -1.070296    2.155995
  C     -0.515711   -1.810321    1.092452
  N      0.470107   -0.963310    0.405574
  C      1.324299   -0.227875    1.353123
  C      0.561901    0.540510    2.440940
  C     -2.171850    0.077933    1.571275
  N     -1.383262    1.165278    0.968090
  C     -0.330317    1.651742    1.871130
  C     -0.353083   -0.453633    3.131267
  C      1.563476    1.153339    3.406063
  C     -2.269339   -2.057963    2.840066
  O     -0.303619   -0.719839    4.307898
  C     -2.264158    2.315749    0.618599
  C      1.300287   -1.834869   -0.473776
  C     -3.427197    1.964092   -0.268708
  C     -4.679707    1.676292    0.290513
  C     -5.761515    1.338091   -0.520145
  C     -5.604786    1.287691   -1.906516
  C     -4.366353    1.586048   -2.473521
  C     -3.285736    1.926136   -1.660850
  C      2.395941   -1.114287   -1.211503
  C      2.144277   -0.477321   -2.432298
  C      3.162909    0.199318   -3.101804
  C      4.448891    0.241255   -2.564414
  C      4.715237   -0.404355   -1.355583
  C      3.695136   -1.078493   -0.687069
  Cu    -0.516328    0.421867   -0.724673
  H      0.012062   -2.649105    1.581788
  H     -1.185459   -2.232518    0.327196
  H      1.950804    0.474021    0.783196
  H      2.001266   -0.945611    1.851968
  H     -2.793616    0.497813    2.383281
  H     -2.855035   -0.320872    0.806914
  H     -0.802283    2.187085    2.715147
  H      0.282747    2.374651    1.310989
  H      2.185266    0.372432    3.865366
  H      2.220157    1.860422    2.878624
  H      1.044558    1.690893    4.211808
  H     -2.978425   -2.481988    2.114237
  H     -1.696402   -2.879711    3.291623
  H     -2.838418   -1.562842    3.639053
  H     -1.618533    3.058993    0.132542
  H     -2.635774    2.741069    1.567024
  H      1.738217   -2.620336    0.166373
  H      0.605658   -2.308732   -1.179891
  H     -4.809072    1.721394    1.375533
  H     -6.731470    1.116380   -0.068182
  H     -6.451773    1.022415   -2.544423
  H     -4.237756    1.555322   -3.558241
  H     -2.317959    2.167101   -2.107090
  H      1.138620   -0.515573   -2.857527
  H      2.948092    0.696379   -4.050936
  H      5.247355    0.771116   -3.090130
  H      5.722816   -0.385786   -0.932894
  H      3.910931   -1.588811    0.255816
  Cl    -1.384341   -0.958784   -2.301284
  Cl     0.258236    2.366635   -1.598386

 Multiplicity           Mult            ....    2
 Number of Electrons    NEL             ....  251
 Basis Dimension        Dim             ....  571

ORBITAL ENERGIES
----------------
                 SPIN UP ORBITALS
  NO   OCC          E(Eh)            E(eV)
   0   1.0000    -323.469815     -8802.0611
   1   1.0000    -101.613691     -2765.0491
   2   1.0000    -101.613525     -2765.0446
   3   1.0000     -39.085783     -1063.5782
   4   1.0000     -34.273188      -932.6209
   5   1.0000     -34.272863      -932.6120
   6   1.0000     -34.246331      -931.8900
   7   1.0000     -19.225502      -523.1525
   8   1.0000     -14.468212      -393.7001
   9   1.0000     -14.468159      -393.6986
  10   1.0000     -10.336386      -281.2674
  11   1.0000     -10.287405      -279.9345
  12   1.0000     -10.287386      -279.9340
  13   1.0000     -10.285902      -279.8936
  14   1.0000     -10.285754      -279.8896
  15   1.0000     -10.278252      -279.6855
  16   1.0000     -10.277974      -279.6779
  17   1.0000     -10.274405      -279.5808
  18   1.0000     -10.274320      -279.5785
  19   1.0000     -10.251635      -278.9612
  20   1.0000     -10.251583      -278.9598
  21   1.0000     -10.243163      -278.7306
  22   1.0000     -10.243064      -278.7279
  23   1.0000     -10.241536      -278.6864
  24   1.0000     -10.241494      -278.6852
  25   1.0000     -10.240962      -278.6707
  26   1.0000     -10.240926      -278.6698
  27   1.0000     -10.239656      -278.6352
  28   1.0000     -10.239633      -278.6346
  29   1.0000     -10.238964      -278.6164
  30   1.0000     -10.238898      -278.6146
  31   1.0000     -10.234695      -278.5002
  32   1.0000     -10.234661      -278.4993
  33   1.0000      -9.462946      -257.4998
  34   1.0000      -9.462803      -257.4960
  35   1.0000      -7.200682      -195.9405
  36   1.0000      -7.200554      -195.9370
  37   1.0000      -7.197183      -195.8453
  38   1.0000      -7.197050      -195.8417
  39   1.0000      -7.196659      -195.8311
  40   1.0000      -7.196528      -195.8275
  41   1.0000      -4.474441      -121.7557
  42   1.0000      -2.969075       -80.7926
  43   1.0000      -2.968579       -80.7791
  44   1.0000      -2.917806       -79.3975
  45   1.0000      -1.086024       -29.5522
  46   1.0000      -1.014357       -27.6020
  47   1.0000      -0.993096       -27.0235
  48   1.0000      -0.885576       -24.0978
  49   1.0000      -0.881286       -23.9810
  50   1.0000      -0.861648       -23.4466
  51   1.0000      -0.857812       -23.3422
  52   1.0000      -0.795100       -21.6358
  53   1.0000      -0.788530       -21.4570
  54   1.0000      -0.770273       -20.9602
  55   1.0000      -0.764498       -20.8031
  56   1.0000      -0.762563       -20.7504
  57   1.0000      -0.761840       -20.7307
  58   1.0000      -0.750586       -20.4245
  59   1.0000      -0.729845       -19.8601
  60   1.0000      -0.723147       -19.6778
  61   1.0000      -0.720238       -19.5987
  62   1.0000      -0.692471       -18.8431
  63   1.0000      -0.653501       -17.7827
  64   1.0000      -0.637374       -17.3438
  65   1.0000      -0.624383       -16.9903
  66   1.0000      -0.623691       -16.9715
  67   1.0000      -0.619242       -16.8504
  68   1.0000      -0.603851       -16.4316
  69   1.0000      -0.598029       -16.2732
  70   1.0000      -0.570941       -15.5361
  71   1.0000      -0.541709       -14.7407
  72   1.0000      -0.537667       -14.6307
  73   1.0000      -0.534056       -14.5324
  74   1.0000      -0.529389       -14.4054
  75   1.0000      -0.525372       -14.2961
  76   1.0000      -0.516232       -14.0474
  77   1.0000      -0.502069       -13.6620
  78   1.0000      -0.488958       -13.3052
  79   1.0000      -0.484877       -13.1942
  80   1.0000      -0.481251       -13.0955
  81   1.0000      -0.480303       -13.0697
  82   1.0000      -0.470036       -12.7903
  83   1.0000      -0.462627       -12.5887
  84   1.0000      -0.460836       -12.5400
  85   1.0000      -0.452563       -12.3149
  86   1.0000      -0.443426       -12.0662
  87   1.0000      -0.434982       -11.8365
  88   1.0000      -0.432582       -11.7711
  89   1.0000      -0.430028       -11.7017
  90   1.0000      -0.429240       -11.6802
  91   1.0000      -0.424859       -11.5610
  92   1.0000      -0.419554       -11.4166
  93   1.0000      -0.417988       -11.3740
  94   1.0000      -0.411781       -11.2051
  95   1.0000      -0.408609       -11.1188
  96   1.0000      -0.405277       -11.0282
  97   1.0000      -0.403702       -10.9853
  98   1.0000      -0.402607       -10.9555
  99   1.0000      -0.400164       -10.8890
 100   1.0000      -0.398008       -10.8304
 101   1.0000      -0.391696       -10.6586
 102   1.0000      -0.387893       -10.5551
 103   1.0000      -0.385763       -10.4972
 104   1.0000      -0.384391       -10.4598
 105   1.0000      -0.379024       -10.3138
 106   1.0000      -0.372698       -10.1416
 107   1.0000      -0.366431        -9.9711
 108   1.0000      -0.366290        -9.9673
 109   1.0000      -0.358206        -9.7473
 110   1.0000      -0.356000        -9.6873
 111   1.0000      -0.355071        -9.6620
 112   1.0000      -0.349794        -9.5184
 113   1.0000      -0.348912        -9.4944
 114   1.0000      -0.308093        -8.3836
 115   1.0000      -0.304208        -8.2779
 116   1.0000      -0.293548        -7.9878
 117   1.0000      -0.283860        -7.7242
 118   1.0000      -0.280730        -7.6391
 119   1.0000      -0.277805        -7.5595
 120   1.0000      -0.276511        -7.5242
 121   1.0000      -0.268855        -7.3159
 122   1.0000      -0.268695        -7.3116
 123   1.0000      -0.266236        -7.2447
 124   1.0000      -0.265717        -7.2305
 125   1.0000      -0.262894        -7.1537
 126   0.0000      -0.033219        -0.9039
 127   0.0000      -0.016561        -0.4506
 128   0.0000      -0.016278        -0.4430
 129   0.0000      -0.010665        -0.2902
 130   0.0000      -0.009674        -0.2632

                 SPIN DOWN ORBITALS
  NO   OCC          E(Eh)            E(eV)
   0   1.0000    -323.469630     -8802.0561
   1   1.0000    -101.613209     -2765.0360
   2   1.0000    -101.613042     -2765.0315
   3   1.0000     -39.067239     -1063.0736
   4   1.0000     -34.252499      -932.0579
   5   1.0000     -34.252201      -932.0498
   6   1.0000     -34.241586      -931.7609
   7   1.0000     -19.225500      -523.1525
   8   1.0000     -14.464776      -393.6066
   9   1.0000     -14.464715      -393.6049
  10   1.0000     -10.336388      -281.2674
  11   1.0000     -10.287485      -279.9367
  12   1.0000     -10.287465      -279.9362
  13   1.0000     -10.286047      -279.8976
  14   1.0000     -10.285900      -279.8936
  15   1.0000     -10.278333      -279.6877
  16   1.0000     -10.278056      -279.6801
  17   1.0000     -10.274385      -279.5802
  18   1.0000     -10.274300      -279.5779
  19   1.0000     -10.251602      -278.9603
  20   1.0000     -10.251549      -278.9588
  21   1.0000     -10.243178      -278.7311
  22   1.0000     -10.243079      -278.7284
  23   1.0000     -10.241546      -278.6866
  24   1.0000     -10.241504      -278.6855
  25   1.0000     -10.240945      -278.6703
  26   1.0000     -10.240910      -278.6693
  27   1.0000     -10.239644      -278.6349
  28   1.0000     -10.239622      -278.6343
  29   1.0000     -10.238989      -278.6170
  30   1.0000     -10.238923      -278.6153
  31   1.0000     -10.234699      -278.5003
  32   1.0000     -10.234665      -278.4994
  33   1.0000      -9.462483      -257.4872
  34   1.0000      -9.462340      -257.4834
  35   1.0000      -7.199387      -195.9053
  36   1.0000      -7.199260      -195.9018
  37   1.0000      -7.196619      -195.8299
  38   1.0000      -7.196489      -195.8264
  39   1.0000      -7.196389      -195.8237
  40   1.0000      -7.196258      -195.8201
  41   1.0000      -4.434957      -120.6813
  42   1.0000      -2.911754       -79.2328
  43   1.0000      -2.911326       -79.2212
  44   1.0000      -2.905289       -79.0569
  45   1.0000      -1.085994       -29.5514
  46   1.0000      -1.010577       -27.4992
  47   1.0000      -0.988594       -26.9010
  48   1.0000      -0.885496       -24.0956
  49   1.0000      -0.881190       -23.9784
  50   1.0000      -0.860833       -23.4245
  51   1.0000      -0.857681       -23.3387
  52   1.0000      -0.794834       -21.6285
  53   1.0000      -0.788112       -21.4456
  54   1.0000      -0.768296       -20.9064
  55   1.0000      -0.764339       -20.7987
  56   1.0000      -0.760545       -20.6955
  57   1.0000      -0.759149       -20.6575
  58   1.0000      -0.749912       -20.4061
  59   1.0000      -0.729357       -19.8468
  60   1.0000      -0.722938       -19.6721
  61   1.0000      -0.719855       -19.5883
  62   1.0000      -0.692142       -18.8342
  63   1.0000      -0.650868       -17.7110
  64   1.0000      -0.636256       -17.3134
  65   1.0000      -0.624272       -16.9873
  66   1.0000      -0.623526       -16.9670
  67   1.0000      -0.618933       -16.8420
  68   1.0000      -0.602801       -16.4031
  69   1.0000      -0.597154       -16.2494
  70   1.0000      -0.567039       -15.4299
  71   1.0000      -0.541017       -14.7218
  72   1.0000      -0.537283       -14.6202
  73   1.0000      -0.532676       -14.4949
  74   1.0000      -0.524823       -14.2812
  75   1.0000      -0.523033       -14.2325
  76   1.0000      -0.515685       -14.0325
  77   1.0000      -0.498457       -13.5637
  78   1.0000      -0.488267       -13.2864
  79   1.0000      -0.483396       -13.1539
  80   1.0000      -0.480104       -13.0643
  81   1.0000      -0.476660       -12.9706
  82   1.0000      -0.467110       -12.7107
  83   1.0000      -0.462466       -12.5843
  84   1.0000      -0.458647       -12.4804
  85   1.0000      -0.451861       -12.2957
  86   1.0000      -0.434823       -11.8321
  87   1.0000      -0.434478       -11.8227
  88   1.0000      -0.429746       -11.6940
  89   1.0000      -0.429445       -11.6858
  90   1.0000      -0.423548       -11.5253
  91   1.0000      -0.419139       -11.4053
  92   1.0000      -0.415100       -11.2955
  93   1.0000      -0.409129       -11.1330
  94   1.0000      -0.405177       -11.0254
  95   1.0000      -0.404354       -11.0030
  96   1.0000      -0.402471       -10.9518
  97   1.0000      -0.396500       -10.7893
  98   1.0000      -0.390189       -10.6176
  99   1.0000      -0.386894       -10.5279
 100   1.0000      -0.386669       -10.5218
 101   1.0000      -0.385049       -10.4777
 102   1.0000      -0.382929       -10.4200
 103   1.0000      -0.377732       -10.2786
 104   1.0000      -0.376024       -10.2321
 105   1.0000      -0.372048       -10.1239
 106   1.0000      -0.366821        -9.9817
 107   1.0000      -0.363324        -9.8865
 108   1.0000      -0.355896        -9.6844
 109   1.0000      -0.355194        -9.6653
 110   1.0000      -0.353247        -9.6123
 111   1.0000      -0.350155        -9.5282
 112   1.0000      -0.343927        -9.3587
 113   1.0000      -0.333870        -9.0851
 114   1.0000      -0.299576        -8.1519
 115   1.0000      -0.297488        -8.0951
 116   1.0000      -0.290086        -7.8937
 117   1.0000      -0.280527        -7.6335
 118   1.0000      -0.276731        -7.5302
 119   1.0000      -0.274358        -7.4657
 120   1.0000      -0.272880        -7.4254
 121   1.0000      -0.267235        -7.2718
 122   1.0000      -0.266772        -7.2592
 123   1.0000      -0.264570        -7.1993
 124   1.0000      -0.262144        -7.1333
 125   0.0000      -0.134366        -3.6563
 126   0.0000      -0.033067        -0.8998
 127   0.0000      -0.016321        -0.4441
 128   0.0000      -0.016075        -0.4374
 129   0.0000      -0.009964        -0.2711

MULLIKEN ATOMIC CHARGES AND SPIN POPULATIONS
--------------------------------------------
   0 C :   -0.427848    0.000983
   1 C :    0.223395   -0.006380
   2 N :   -0.533183    0.119223
   3 C :    0.201413   -0.006861
   4 C :   -0.426640    0.000982
   5 C :    0.202279   -0.006902
   6 N :   -0.533196    0.119882
   7 C :    0.223509   -0.006442
   8 C :    0.206002    0.000212
   9 C :    0.048520   -0.000100
  10 C :    0.048710   -0.000102
  11 O :   -0.230281    0.000134
  12 C :    0.205098   -0.005858
  13 C :    0.204177   -0.005820
  14 C :   -0.152717    0.002295
  15 C :   -0.029801   -0.001563
  16 C :   -0.041048    0.001747
  17 C :   -0.034628   -0.001291
  18 C :   -0.034194    0.001749
  19 C :    0.004838   -0.002066
  20 C :   -0.150938    0.002273
  21 C :    0.004292   -0.002050
  22 C :   -0.034907    0.001730
  23 C :   -0.034277   -0.001280
  24 C :   -0.041078    0.001724
  25 C :   -0.029532   -0.001541
  26 Cu:    0.440609    0.609530
  27 H :    0.072963    0.005683
  28 H :    0.068203    0.001182
  29 H :    0.097510    0.002125
  30 H :    0.075546    0.011679
  31 H :    0.076053    0.011737
  32 H :    0.097281    0.002134
  33 H :    0.072707    0.005735
  34 H :    0.067817    0.001169
  35 H :    0.061481   -0.000004
  36 H :    0.062873   -0.000003
  37 H :    0.061177   -0.000050
  38 H :    0.062887   -0.000003
  39 H :    0.061263   -0.000050
  40 H :    0.061475   -0.000003
  41 H :    0.060267    0.001659
  42 H :    0.071599    0.007921
  43 H :    0.071089    0.007863
  44 H :    0.060366    0.001650
  45 H :    0.040029    0.000109
  46 H :    0.045522   -0.000072
  47 H :    0.047183    0.000048
  48 H :    0.041417   -0.000079
  49 H :    0.006507   -0.000596
  50 H :    0.005621   -0.000609
  51 H :    0.041444   -0.000079
  52 H :    0.047166    0.000047
  53 H :    0.045490   -0.000071
  54 H :    0.039418    0.000106
  55 Cl:   -0.450305    0.063332
  56 Cl:   -0.450624    0.063232
Sum of atomic charges         :   -0.0000000

LOEWDIN ATOMIC CHARGES AND SPIN POPULATIONS
-------------------------------------------
   0 C :   -0.100083    0.000643
   1 C :    0.049574   -0.002985
   2 N :   -0.027747    0.108968
   3 C :    0.046339   -0.000616
   4 C :   -0.100028    0.000642
   5 C :    0.046452   -0.000608
   6 N :   -0.027389    0.109561
   7 C :    0.049580   -0.002996
   8 C :    0.111734    0.000034
   9 C :   -0.040632   -0.000101
  10 C :   -0.040605   -0.000101
  11 O :   -0.156578    0.000085
  12 C :    0.044967   -0.000892
  13 C :    0.045012   -0.000886
  14 C :   -0.062330    0.001272
  15 C :   -0.029766   -0.000867
  16 C :   -0.039389    0.001247
  17 C :   -0.034502   -0.000817
  18 C :   -0.034295    0.001096
  19 C :   -0.025803   -0.001357
  20 C :   -0.062226    0.001255
  21 C :   -0.026053   -0.001351
  22 C :   -0.034561    0.001081
  23 C :   -0.034407   -0.000810
  24 C :   -0.039285    0.001229
  25 C :   -0.029679   -0.000852
  26 Cu:    0.154158    0.622339
  27 H :    0.042588    0.004095
  28 H :    0.037954    0.000922
  29 H :    0.045240    0.001797
  30 H :    0.043198    0.008204
  31 H :    0.043422    0.008247
  32 H :    0.045193    0.001805
  33 H :    0.042529    0.004129
  34 H :    0.037531    0.000916
  35 H :    0.041275    0.000029
  36 H :    0.042877   -0.000007
  37 H :    0.041564   -0.000023
  38 H :    0.042875   -0.000007
  39 H :    0.041607   -0.000023
  40 H :    0.041286    0.000030
  41 H :    0.031520    0.001233
  42 H :    0.041190    0.005554
  43 H :    0.040949    0.005513
  44 H :    0.031711    0.001225
  45 H :    0.041324    0.000101
  46 H :    0.043763   -0.000002
  47 H :    0.043192   -0.000001
  48 H :    0.042285   -0.000012
  49 H :    0.019210   -0.000283
  50 H :    0.018571   -0.000284
  51 H :    0.042296   -0.000013
  52 H :    0.043175   -0.000001
  53 H :    0.043741   -0.000002
  54 H :    0.041066    0.000100
  55 Cl:   -0.357732    0.061332
  56 Cl:   -0.357856    0.061211

  Mayer bond orders larger than 0.100000
B(  0-C ,  1-C ) :   0.9790 B(  0-C ,  5-C ) :   0.9873 B(  0-C ,  8-C ) :   0.8829
B(  0-C , 10-C ) :   1.0748 B(  1-C ,  2-N ) :   0.8729 B(  1-C , 27-H ) :   0.9287
B(  1-C , 28-H ) :   0.9311 B(  2-N ,  3-C ) :   0.8606 B(  2-N , 13-C ) :   0.8739
B(  2-N , 26-Cu) :   0.5121 B(  3-C ,  4-C ) :   0.9875 B(  3-C , 29-H ) :   0.9273
B(  3-C , 30-H ) :   0.9245 B(  4-C ,  7-C ) :   0.9792 B(  4-C ,  8-C ) :   0.8829
B(  4-C ,  9-C ) :   1.0747 B(  5-C ,  6-N ) :   0.8606 B(  5-C , 31-H ) :   0.9244
B(  5-C , 32-H ) :   0.9274 B(  6-N ,  7-C ) :   0.8731 B(  6-N , 12-C ) :   0.8735
B(  6-N , 26-Cu) :   0.5128 B(  7-C , 33-H ) :   0.9285 B(  7-C , 34-H ) :   0.9308
B(  8-C , 11-O ) :   2.2089 B(  9-C , 35-H ) :   0.9544 B(  9-C , 36-H ) :   0.9577
B(  9-C , 37-H ) :   0.9543 B( 10-C , 38-H ) :   0.9577 B( 10-C , 39-H ) :   0.9543
B( 10-C , 40-H ) :   0.9543 B( 12-C , 14-C ) :   1.0175 B( 12-C , 41-H ) :   0.9256
B( 12-C , 42-H ) :   0.9348 B( 13-C , 20-C ) :   1.0173 B( 13-C , 43-H ) :   0.9349
B( 13-C , 44-H ) :   0.9260 B( 14-C , 15-C ) :   1.3733 B( 14-C , 19-C ) :   1.3997
B( 15-C , 16-C ) :   1.3942 B( 15-C , 45-H ) :   0.9883 B( 16-C , 17-C ) :   1.3760
B( 16-C , 46-H ) :   0.9882 B( 17-C , 18-C ) :   1.3861 B( 17-C , 47-H ) :   0.9894
B( 18-C , 19-C ) :   1.3839 B( 18-C , 48-H ) :   0.9882 B( 19-C , 49-H ) :   0.9583
B( 20-C , 21-C ) :   1.3995 B( 20-C , 25-C ) :   1.3731 B( 21-C , 22-C ) :   1.3843
B( 21-C , 50-H ) :   0.9576 B( 22-C , 23-C ) :   1.3858 B( 22-C , 51-H ) :   0.9883
B( 23-C , 24-C ) :   1.3761 B( 23-C , 52-H ) :   0.9894 B( 24-C , 25-C ) :   1.3947
B( 24-C , 53-H ) :   0.9882 B( 25-C , 54-H ) :   0.9881 B( 26-Cu, 55-Cl) :   0.6808
B( 26-Cu, 56-Cl) :   0.6802

Dispersion correction           -0.090713418
FINAL SINGLE POINT ENERGY     -3636.113274173566

DIPOLE MOMENT
-------------
                                X             Y             Z
Electronic contribution:     -0.90454       4.86075     -21.30822
Nuclear contribution   :      1.04829      -5.73747      25.14221
                        -----------------------------------------
Total Dipole Moment    :      0.14376      -0.87672       3.83399
                        -----------------------------------------
Magnitude (a.u.)       :      3.93557
Magnitude (Debye)      :     10.00344

Rotational constants in cm-1:     0.006646     0.004414     0.003344
Rotational constants in MHz :   199.253123   132.342160   100.239833

                             ****ORCA TERMINATED NORMALLY****
TOTAL RUN TIME: 0 days 17 hours 24 minutes 30 seconds 588 msec
