                         Program Version 4.2.1 -  RELEASE  -
|  1> ! PBE0 Grid4 D3BJ def2-svp PAL2
|  2> ! TightOpt
|  3> ! CPCM(water)
|  4>
|  5> * xyz 2 2
|  6> 6       -1.348964000     -1.216547000      1.767921000
|  7> 6       -0.793241000     -2.018350000      0.585841000
|  8> 7        0.435766000     -1.439387000      0.022000000
|  9> 6        1.465256000     -1.219853000      1.056662000
| 10> 6        0.980369000     -0.412148000      2.267102000
| 11> 6       -1.710147000      0.221504000      1.374759000
| 12> 7       -0.565227000      1.033147000      0.923059000
| 13> 6        0.551349000      1.007921000      1.879576000
| 14> 6       -0.247920000     -1.123960000      2.813571000
| 15> 6        2.096399000     -0.336247000      3.294351000
| 16> 6       -2.588511000     -1.909975000      2.307409000
| 17> 8       -0.338237000     -1.557559000      3.933844000
| 18> 6       -0.988781000      2.416831000      0.595950000
| 19> 6        0.970471000     -2.265517000     -1.089070000
| 20> 6       -1.608330000      2.367004000     -0.768236000
| 21> 6       -2.987064000      2.311503000     -0.963259000
| 22> 6       -3.502912000      2.094204000     -2.242025000
| 23> 6       -2.650362000      1.920540000     -3.335310000
| 24> 6       -1.273613000      1.990281000     -3.157007000
| 25> 6       -0.739707000      2.208589000     -1.874158000
| 26> 6        1.787717000     -1.353378000     -1.952919000
| 27> 6        1.094758000     -0.447037000     -2.785182000
| 28> 6        1.804380000      0.536564000     -3.496225000
| 29> 6        3.186418000      0.616828000     -3.376717000
| 30> 6        3.870144000     -0.291862000     -2.563222000
| 31> 6        3.176367000     -1.269542000     -1.850118000
| 32> 29       0.038969000      0.320425000     -0.890416000
| 33> 1       -0.570990000     -3.047961000      0.917349000
| 34> 1       -1.547698000     -2.090922000     -0.212416000
| 35> 1        2.331266000     -0.717685000      0.599838000
| 36> 1        1.809325000     -2.208903000      1.405821000
| 37> 1       -2.160706000      0.724312000      2.248629000
| 38> 1       -2.474265000      0.209188000      0.582710000
| 39> 1        0.243970000      1.553859000      2.788773000
| 40> 1        1.400116000      1.553736000      1.439631000
| 41> 1        2.399526000     -1.344416000      3.608722000
| 42> 1        2.971820000      0.178865000      2.873744000
| 43> 1        1.759512000      0.210349000      4.185732000
| 44> 1       -3.375197000     -1.944277000      1.540076000
| 45> 1       -2.350443000     -2.937867000      2.613763000
| 46> 1       -2.976317000     -1.375645000      3.185353000
| 47> 1       -0.094188000      3.054666000      0.596394000
| 48> 1       -1.680809000      2.787816000      1.367151000
| 49> 1        1.551787000     -3.107804000     -0.683845000
| 50> 1        0.117088000     -2.671640000     -1.649947000
| 51> 1       -3.661799000      2.433196000     -0.112972000
| 52> 1       -4.584909000      2.051965000     -2.385403000
| 53> 1       -3.063807000      1.750656000     -4.331162000
| 54> 1       -0.612966000      1.910305000     -4.021721000
| 55> 1        0.327224000      2.462274000     -1.765608000
| 56> 1        0.033342000     -0.627663000     -3.018475000
| 57> 1        1.280262000      1.214036000     -4.171489000
| 58> 1        3.738380000      1.377621000     -3.931891000
| 59> 1        4.957629000     -0.234073000     -2.479323000
| 60> 1        3.714501000     -1.968964000     -1.206616000
| 61> **                         ****END OF INPUT****
 Total Charge           Charge          ....    2
 Multiplicity           Mult            ....    2
 Number of Electrons    NEL             ....  215
Dispersion correction           -0.082781965
FINAL SINGLE POINT ENERGY     -2715.867228242170
Dispersion correction            ... done
Dispersion correction           -0.082778976
FINAL SINGLE POINT ENERGY     -2715.866975225593
Dispersion correction            ... done
Dispersion correction           -0.082778749
FINAL SINGLE POINT ENERGY     -2715.867143451673
Dispersion correction            ... done
FINAL SINGLE POINT ENERGY     -2715.867147044483
FINAL SINGLE POINT ENERGY     -2715.867144276503
FINAL SINGLE POINT ENERGY     -2715.867144480515
FINAL SINGLE POINT ENERGY     -2715.867056638658
FINAL SINGLE POINT ENERGY     -2715.867056941553
FINAL SINGLE POINT ENERGY     -2715.867080236672
FINAL SINGLE POINT ENERGY     -2715.867081003670
FINAL SINGLE POINT ENERGY     -2715.867078864860
FINAL SINGLE POINT ENERGY     -2715.867031070410
Dispersion correction            ... done
Dispersion correction           -0.082780276
FINAL SINGLE POINT ENERGY     -2715.867101816996
Dispersion correction            ... done
Dispersion correction           -0.082780712
FINAL SINGLE POINT ENERGY     -2715.867102221629
Dispersion correction            ... done
                    ***********************HURRAY********************

CARTESIAN COORDINATES (ANGSTROEM)
---------------------------------
  C     -1.349732   -1.212979    1.763768
  C     -0.795903   -2.014443    0.579949
  N      0.441675   -1.445923    0.023544
  C      1.468191   -1.228413    1.061235
  C      0.981228   -0.414144    2.266699
  C     -1.705833    0.226308    1.370454
  N     -0.557054    1.029857    0.910042
  C      0.556479    1.005230    1.871792
  C     -0.249324   -1.123865    2.809696
  C      2.093605   -0.336901    3.298704
  C     -2.590938   -1.904464    2.301964
  O     -0.340940   -1.561031    3.928339
  C     -0.979138    2.415530    0.585284
  C      0.978180   -2.273111   -1.086396
  C     -1.609633    2.364465   -0.773472
  C     -2.989978    2.303164   -0.957176
  C     -3.514604    2.089474   -2.232482
  C     -2.669211    1.924068   -3.332940
  C     -1.291761    1.997062   -3.165258
  C     -0.749766    2.213523   -1.885751
  C      1.793906   -1.358354   -1.948609
  C      1.096817   -0.446248   -2.773753
  C      1.805960    0.540940   -3.481008
  C      3.188065    0.622685   -3.362199
  C      3.873300   -0.291208   -2.556904
  C      3.181518   -1.274125   -1.847965
  Cu     0.054213    0.323461   -0.890324
  H     -0.585882   -3.047341    0.909070
  H     -1.546279   -2.069951   -0.223384
  H      2.337222   -0.731041    0.604355
  H      1.806833   -2.217651    1.415117
  H     -2.144083    0.734383    2.247191
  H     -2.473035    0.216225    0.581289
  H      0.245135    1.554376    2.777945
  H      1.408407    1.547243    1.433548
  H      2.391002   -1.344983    3.618283
  H      2.972226    0.173930    2.879414
  H      1.754624    0.215231    4.185837
  H     -3.372592   -1.946545    1.529948
  H     -2.352013   -2.929069    2.618003
  H     -2.984682   -1.362821    3.172807
  H     -0.081966    3.049551    0.576577
  H     -1.662503    2.789694    1.362307
  H      1.562617   -3.111469   -0.678509
  H      0.125635   -2.681885   -1.646339
  H     -3.657675    2.418384   -0.100463
  H     -4.597492    2.044772   -2.368154
  H     -3.089334    1.757297   -4.326529
  H     -0.637523    1.920919   -4.034840
  H      0.318034    2.464513   -1.783281
  H      0.038723   -0.634830   -3.016298
  H      1.280833    1.222194   -4.151950
  H      3.738303    1.387656   -3.913200
  H      4.960965   -0.233549   -2.474850
  H      3.722181   -1.976787   -1.210127

 Multiplicity           Mult            ....    2
 Number of Electrons    NEL             ....  215
 Basis Dimension        Dim             ....  535

ORBITAL ENERGIES
----------------
                 SPIN UP ORBITALS
  NO   OCC          E(Eh)            E(eV)
   0   1.0000    -323.503399     -8802.9750
   1   1.0000     -39.115292     -1064.3812
   2   1.0000     -34.300196      -933.3558
   3   1.0000     -34.299923      -933.3483
   4   1.0000     -34.282434      -932.8725
   5   1.0000     -19.236338      -523.4474
   6   1.0000     -14.505982      -394.7278
   7   1.0000     -14.505810      -394.7231
   8   1.0000     -10.348483      -281.5965
   9   1.0000     -10.307881      -280.4917
  10   1.0000     -10.307816      -280.4899
  11   1.0000     -10.307411      -280.4789
  12   1.0000     -10.307297      -280.4758
  13   1.0000     -10.307229      -280.4740
  14   1.0000     -10.306955      -280.4665
  15   1.0000     -10.296455      -280.1808
  16   1.0000     -10.296036      -280.1694
  17   1.0000     -10.290025      -280.0058
  18   1.0000     -10.289959      -280.0040
  19   1.0000     -10.288122      -279.9540
  20   1.0000     -10.287928      -279.9488
  21   1.0000     -10.281269      -279.7675
  22   1.0000     -10.281081      -279.7624
  23   1.0000     -10.276362      -279.6340
  24   1.0000     -10.276147      -279.6282
  25   1.0000     -10.271977      -279.5147
  26   1.0000     -10.271604      -279.5045
  27   1.0000     -10.268771      -279.4275
  28   1.0000     -10.268623      -279.4234
  29   1.0000     -10.242493      -278.7124
  30   1.0000     -10.242372      -278.7091
  31   1.0000      -4.506667      -122.6327
  32   1.0000      -2.997220       -81.5585
  33   1.0000      -2.996087       -81.5277
  34   1.0000      -2.960866       -80.5693
  35   1.0000      -1.098062       -29.8798
  36   1.0000      -1.045855       -28.4591
  37   1.0000      -1.025659       -27.9096
  38   1.0000      -0.924596       -25.1595
  39   1.0000      -0.918842       -25.0030
  40   1.0000      -0.884681       -24.0734
  41   1.0000      -0.875041       -23.8111
  42   1.0000      -0.831759       -22.6333
  43   1.0000      -0.820910       -22.3381
  44   1.0000      -0.805767       -21.9260
  45   1.0000      -0.799448       -21.7541
  46   1.0000      -0.772372       -21.0173
  47   1.0000      -0.753870       -20.5139
  48   1.0000      -0.746984       -20.3265
  49   1.0000      -0.744166       -20.2498
  50   1.0000      -0.710848       -19.3432
  51   1.0000      -0.676231       -18.4012
  52   1.0000      -0.666532       -18.1372
  53   1.0000      -0.661057       -17.9883
  54   1.0000      -0.654818       -17.8185
  55   1.0000      -0.639837       -17.4109
  56   1.0000      -0.636381       -17.3168
  57   1.0000      -0.627205       -17.0671
  58   1.0000      -0.601524       -16.3683
  59   1.0000      -0.567234       -15.4352
  60   1.0000      -0.564595       -15.3634
  61   1.0000      -0.561857       -15.2889
  62   1.0000      -0.556481       -15.1426
  63   1.0000      -0.548512       -14.9258
  64   1.0000      -0.547488       -14.8979
  65   1.0000      -0.529229       -14.4011
  66   1.0000      -0.515905       -14.0385
  67   1.0000      -0.514694       -14.0055
  68   1.0000      -0.507107       -13.7991
  69   1.0000      -0.504213       -13.7203
  70   1.0000      -0.500419       -13.6171
  71   1.0000      -0.495949       -13.4955
  72   1.0000      -0.489589       -13.3224
  73   1.0000      -0.474236       -12.9046
  74   1.0000      -0.470596       -12.8056
  75   1.0000      -0.468744       -12.7552
  76   1.0000      -0.464669       -12.6443
  77   1.0000      -0.457656       -12.4535
  78   1.0000      -0.448941       -12.2163
  79   1.0000      -0.446534       -12.1508
  80   1.0000      -0.442611       -12.0441
  81   1.0000      -0.437769       -11.9123
  82   1.0000      -0.437644       -11.9089
  83   1.0000      -0.433903       -11.8071
  84   1.0000      -0.432869       -11.7790
  85   1.0000      -0.430148       -11.7049
  86   1.0000      -0.427187       -11.6244
  87   1.0000      -0.423838       -11.5332
  88   1.0000      -0.417486       -11.3604
  89   1.0000      -0.414886       -11.2896
  90   1.0000      -0.413991       -11.2653
  91   1.0000      -0.412317       -11.2197
  92   1.0000      -0.399316       -10.8659
  93   1.0000      -0.394814       -10.7434
  94   1.0000      -0.392108       -10.6698
  95   1.0000      -0.389231       -10.5915
  96   1.0000      -0.386921       -10.5287
  97   1.0000      -0.381815       -10.3897
  98   1.0000      -0.381274       -10.3750
  99   1.0000      -0.377464       -10.2713
 100   1.0000      -0.375222       -10.2103
 101   1.0000      -0.362434        -9.8623
 102   1.0000      -0.322657        -8.7799
 103   1.0000      -0.322160        -8.7664
 104   1.0000      -0.304621        -8.2892
 105   1.0000      -0.303263        -8.2522
 106   1.0000      -0.286080        -7.7846
 107   1.0000      -0.285336        -7.7644
 108   0.0000      -0.087558        -2.3826
 109   0.0000      -0.052345        -1.4244
 110   0.0000      -0.044950        -1.2232
 111   0.0000      -0.043395        -1.1808
 112   0.0000      -0.043081        -1.1723

                 SPIN DOWN ORBITALS
  NO   OCC          E(Eh)            E(eV)
   0   1.0000    -323.503301     -8802.9723
   1   1.0000     -39.100741     -1063.9853
   2   1.0000     -34.283954      -932.9138
   3   1.0000     -34.283738      -932.9079
   4   1.0000     -34.278634      -932.7691
   5   1.0000     -19.236334      -523.4473
   6   1.0000     -14.500685      -394.5837
   7   1.0000     -14.500524      -394.5793
   8   1.0000     -10.348489      -281.5967
   9   1.0000     -10.308030      -280.4957
  10   1.0000     -10.307965      -280.4940
  11   1.0000     -10.307496      -280.4812
  12   1.0000     -10.307432      -280.4795
  13   1.0000     -10.307314      -280.4763
  14   1.0000     -10.307089      -280.4701
  15   1.0000     -10.295767      -280.1621
  16   1.0000     -10.295351      -280.1508
  17   1.0000     -10.289992      -280.0049
  18   1.0000     -10.289925      -280.0031
  19   1.0000     -10.287953      -279.9494
  20   1.0000     -10.287758      -279.9441
  21   1.0000     -10.280787      -279.7544
  22   1.0000     -10.280599      -279.7493
  23   1.0000     -10.275543      -279.6117
  24   1.0000     -10.275330      -279.6060
  25   1.0000     -10.272384      -279.5258
  26   1.0000     -10.272010      -279.5156
  27   1.0000     -10.269040      -279.4348
  28   1.0000     -10.268893      -279.4308
  29   1.0000     -10.242499      -278.7126
  30   1.0000     -10.242378      -278.7093
  31   1.0000      -4.476288      -121.8060
  32   1.0000      -2.953137       -80.3590
  33   1.0000      -2.952102       -80.3308
  34   1.0000      -2.951008       -80.3010
  35   1.0000      -1.097977       -29.8775
  36   1.0000      -1.039670       -28.2909
  37   1.0000      -1.018552       -27.7162
  38   1.0000      -0.923609       -25.1327
  39   1.0000      -0.917607       -24.9694
  40   1.0000      -0.883380       -24.0380
  41   1.0000      -0.874731       -23.8026
  42   1.0000      -0.830571       -22.6010
  43   1.0000      -0.819473       -22.2990
  44   1.0000      -0.804800       -21.8997
  45   1.0000      -0.798415       -21.7260
  46   1.0000      -0.771279       -20.9876
  47   1.0000      -0.752998       -20.4901
  48   1.0000      -0.746491       -20.3131
  49   1.0000      -0.743543       -20.2328
  50   1.0000      -0.710503       -19.3338
  51   1.0000      -0.672406       -18.2971
  52   1.0000      -0.664997       -18.0955
  53   1.0000      -0.659675       -17.9507
  54   1.0000      -0.653827       -17.7915
  55   1.0000      -0.637126       -17.3371
  56   1.0000      -0.635119       -17.2825
  57   1.0000      -0.625591       -17.0232
  58   1.0000      -0.595315       -16.1993
  59   1.0000      -0.565497       -15.3880
  60   1.0000      -0.562424       -15.3043
  61   1.0000      -0.559700       -15.2302
  62   1.0000      -0.550194       -14.9715
  63   1.0000      -0.547528       -14.8990
  64   1.0000      -0.546368       -14.8674
  65   1.0000      -0.522103       -14.2071
  66   1.0000      -0.514989       -14.0136
  67   1.0000      -0.508548       -13.8383
  68   1.0000      -0.503332       -13.6964
  69   1.0000      -0.503225       -13.6934
  70   1.0000      -0.499701       -13.5976
  71   1.0000      -0.494144       -13.4464
  72   1.0000      -0.486267       -13.2320
  73   1.0000      -0.473561       -12.8862
  74   1.0000      -0.469248       -12.7689
  75   1.0000      -0.464047       -12.6274
  76   1.0000      -0.456830       -12.4310
  77   1.0000      -0.455172       -12.3859
  78   1.0000      -0.443166       -12.0591
  79   1.0000      -0.437390       -11.9020
  80   1.0000      -0.437257       -11.8984
  81   1.0000      -0.434407       -11.8208
  82   1.0000      -0.432219       -11.7613
  83   1.0000      -0.429562       -11.6890
  84   1.0000      -0.426873       -11.6158
  85   1.0000      -0.421741       -11.4762
  86   1.0000      -0.418072       -11.3763
  87   1.0000      -0.414062       -11.2672
  88   1.0000      -0.412521       -11.2253
  89   1.0000      -0.408005       -11.1024
  90   1.0000      -0.405755       -11.0412
  91   1.0000      -0.402185       -10.9440
  92   1.0000      -0.394174       -10.7260
  93   1.0000      -0.393397       -10.7049
  94   1.0000      -0.388063       -10.5597
  95   1.0000      -0.387381       -10.5412
  96   1.0000      -0.380548       -10.3552
  97   1.0000      -0.379799       -10.3349
  98   1.0000      -0.375473       -10.2171
  99   1.0000      -0.374916       -10.2020
 100   1.0000      -0.362087        -9.8529
 101   1.0000      -0.349942        -9.5224
 102   1.0000      -0.316670        -8.6170
 103   1.0000      -0.309587        -8.4243
 104   1.0000      -0.303069        -8.2469
 105   1.0000      -0.300702        -8.1825
 106   1.0000      -0.285408        -7.7664
 107   0.0000      -0.180704        -4.9172
 108   0.0000      -0.083390        -2.2692
 109   0.0000      -0.046819        -1.2740
 110   0.0000      -0.042934        -1.1683
 111   0.0000      -0.042304        -1.1511

MULLIKEN ATOMIC CHARGES AND SPIN POPULATIONS
--------------------------------------------
   0 C :   -0.443611    0.001152
   1 C :    0.204525   -0.006621
   2 N :   -0.536609    0.184918
   3 C :    0.183547   -0.007354
   4 C :   -0.443038    0.001152
   5 C :    0.183223   -0.007365
   6 N :   -0.535903    0.185232
   7 C :    0.204082   -0.006606
   8 C :    0.218105    0.000233
   9 C :    0.052600   -0.000101
  10 C :    0.052473   -0.000103
  11 O :   -0.212620    0.000206
  12 C :    0.231113   -0.006556
  13 C :    0.232525   -0.006563
  14 C :   -0.142543    0.045359
  15 C :    0.006846   -0.033133
  16 C :    0.014091    0.059356
  17 C :   -0.014284   -0.022816
  18 C :    0.041296    0.035623
  19 C :   -0.172700   -0.003974
  20 C :   -0.144738    0.045200
  21 C :   -0.171810   -0.004037
  22 C :    0.040867    0.035628
  23 C :   -0.014398   -0.022815
  24 C :    0.013899    0.059211
  25 C :    0.007099   -0.033013
  26 Cu:    0.547019    0.420459
  27 H :    0.103387    0.016431
  28 H :    0.116251    0.003165
  29 H :    0.114474    0.002346
  30 H :    0.101180    0.012486
  31 H :    0.101781    0.012530
  32 H :    0.114250    0.002343
  33 H :    0.103961    0.016417
  34 H :    0.115973    0.003150
  35 H :    0.069757   -0.000058
  36 H :    0.070165   -0.000012
  37 H :    0.069805   -0.000030
  38 H :    0.070280   -0.000012
  39 H :    0.069862   -0.000031
  40 H :    0.069594   -0.000057
  41 H :    0.118728    0.000936
  42 H :    0.102586    0.007707
  43 H :    0.102513    0.007762
  44 H :    0.118661    0.000956
  45 H :    0.069804    0.001234
  46 H :    0.077309   -0.002727
  47 H :    0.073294    0.000808
  48 H :    0.086937   -0.001494
  49 H :    0.125592    0.002799
  50 H :    0.125595    0.002847
  51 H :    0.086658   -0.001491
  52 H :    0.073146    0.000810
  53 H :    0.077153   -0.002720
  54 H :    0.070246    0.001233
Sum of atomic charges         :    2.0000000

LOEWDIN ATOMIC CHARGES AND SPIN POPULATIONS
-------------------------------------------
   0 C :   -0.100411    0.001160
   1 C :    0.054727    0.000592
   2 N :   -0.009628    0.168742
   3 C :    0.052230   -0.002009
   4 C :   -0.100263    0.001154
   5 C :    0.052093   -0.002003
   6 N :   -0.009622    0.169028
   7 C :    0.054925    0.000598
   8 C :    0.111598   -0.000029
   9 C :   -0.037177   -0.000142
  10 C :   -0.037247   -0.000143
  11 O :   -0.139176    0.000136
  12 C :    0.062777   -0.001610
  13 C :    0.063004   -0.001586
  14 C :   -0.025657    0.032686
  15 C :   -0.013239   -0.018982
  16 C :    0.030691    0.044213
  17 C :   -0.005931   -0.011968
  18 C :    0.016490    0.026426
  19 C :   -0.066473    0.005311
  20 C :   -0.025771    0.032571
  21 C :   -0.066512    0.005310
  22 C :    0.016086    0.026425
  23 C :   -0.006233   -0.011974
  24 C :    0.030129    0.044101
  25 C :   -0.013056   -0.018907
  26 Cu:    0.491138    0.442878
  27 H :    0.060148    0.012285
  28 H :    0.058987    0.002582
  29 H :    0.052603    0.001744
  30 H :    0.058591    0.009189
  31 H :    0.058910    0.009223
  32 H :    0.052422    0.001740
  33 H :    0.060521    0.012281
  34 H :    0.058657    0.002572
  35 H :    0.045869   -0.000007
  36 H :    0.046420   -0.000010
  37 H :    0.046030    0.000020
  38 H :    0.046458   -0.000010
  39 H :    0.046037    0.000020
  40 H :    0.045804   -0.000006
  41 H :    0.066866    0.000922
  42 H :    0.059680    0.005673
  43 H :    0.059734    0.005710
  44 H :    0.066958    0.000939
  45 H :    0.059085    0.000097
  46 H :    0.060600   -0.000286
  47 H :    0.058912    0.000082
  48 H :    0.057543   -0.000155
  49 H :    0.078827    0.001817
  50 H :    0.078653    0.001856
  51 H :    0.057430   -0.000152
  52 H :    0.058822    0.000083
  53 H :    0.060499   -0.000285
  54 H :    0.059439    0.000099

  Mayer bond orders larger than 0.100000
B(  0-C ,  1-C ) :   0.9840 B(  0-C ,  5-C ) :   0.9846 B(  0-C ,  8-C ) :   0.8725
B(  0-C , 10-C ) :   1.0776 B(  1-C ,  2-N ) :   0.8536 B(  1-C , 27-H ) :   0.9228
B(  1-C , 28-H ) :   0.9393 B(  2-N ,  3-C ) :   0.8477 B(  2-N , 13-C ) :   0.8742
B(  2-N , 26-Cu) :   0.5402 B(  3-C ,  4-C ) :   0.9841 B(  3-C , 29-H ) :   0.9317
B(  3-C , 30-H ) :   0.9223 B(  4-C ,  7-C ) :   0.9841 B(  4-C ,  8-C ) :   0.8723
B(  4-C ,  9-C ) :   1.0779 B(  5-C ,  6-N ) :   0.8479 B(  5-C , 31-H ) :   0.9219
B(  5-C , 32-H ) :   0.9316 B(  6-N ,  7-C ) :   0.8532 B(  6-N , 12-C ) :   0.8742
B(  6-N , 26-Cu) :   0.5405 B(  7-C , 33-H ) :   0.9226 B(  7-C , 34-H ) :   0.9397
B(  8-C , 11-O ) :   2.2249 B(  9-C , 35-H ) :   0.9533 B(  9-C , 36-H ) :   0.9556
B(  9-C , 37-H ) :   0.9533 B( 10-C , 38-H ) :   0.9556 B( 10-C , 39-H ) :   0.9533
B( 10-C , 40-H ) :   0.9534 B( 12-C , 14-C ) :   1.0240 B( 12-C , 41-H ) :   0.9307
B( 12-C , 42-H ) :   0.9209 B( 13-C , 20-C ) :   1.0240 B( 13-C , 43-H ) :   0.9208
B( 13-C , 44-H ) :   0.9305 B( 14-C , 15-C ) :   1.4231 B( 14-C , 19-C ) :   1.2282
B( 15-C , 16-C ) :   1.3706 B( 15-C , 45-H ) :   0.9854 B( 16-C , 17-C ) :   1.3567
B( 16-C , 46-H ) :   0.9837 B( 17-C , 18-C ) :   1.4293 B( 17-C , 47-H ) :   0.9888
B( 18-C , 19-C ) :   1.2753 B( 18-C , 48-H ) :   0.9744 B( 19-C , 26-Cu) :   0.3195
B( 19-C , 49-H ) :   0.9068 B( 20-C , 21-C ) :   1.2301 B( 20-C , 25-C ) :   1.4242
B( 21-C , 22-C ) :   1.2761 B( 21-C , 26-Cu) :   0.3177 B( 21-C , 50-H ) :   0.9061
B( 22-C , 23-C ) :   1.4293 B( 22-C , 51-H ) :   0.9745 B( 23-C , 24-C ) :   1.3568
B( 23-C , 52-H ) :   0.9888 B( 24-C , 25-C ) :   1.3694 B( 24-C , 53-H ) :   0.9837
B( 25-C , 54-H ) :   0.9855

Dispersion correction           -0.082780768
FINAL SINGLE POINT ENERGY     -2715.867101214185

DIPOLE MOMENT
-------------
                                X             Y             Z
Electronic contribution:      1.03235       4.97266     -12.64302
Nuclear contribution   :     -0.88514      -4.23347      10.74950
                        -----------------------------------------
Total Dipole Moment    :      0.14722       0.73919      -1.89352
                        -----------------------------------------
Magnitude (a.u.)       :      2.03801
Magnitude (Debye)      :      5.18021

Rotational constants in cm-1:     0.008343     0.006741     0.004619
Rotational constants in MHz :   250.110126   202.093068   138.483883

                             ****ORCA TERMINATED NORMALLY****
TOTAL RUN TIME: 0 days 7 hours 14 minutes 24 seconds 442 msec
