                         Program Version 4.2.0 -  RELEASE  -
|  1> ! PBE0 Grid4 D3BJ def2-svp
|  2> ! TightOpt
|  3> ! CPCM(water)
|  4>
|  5> %pal nprocs 1
|  6> end
|  7>
|  8> * xyz 0 2
|  9> 6       -0.773059941      1.340185771      0.621770133
| 10> 6        0.733809624      1.055128501      0.563155431
| 11> 7        1.111907138     -0.263384050      1.091958868
| 12> 6        0.319443947     -1.349198939      0.490821749
| 13> 6       -1.198900749     -1.128691553      0.522726648
| 14> 6       -1.324053676      1.337660213      2.054109988
| 15> 7       -1.219305919      0.044882687      2.751086674
| 16> 6       -1.761287846     -1.061474637      1.949182253
| 17> 6       -1.468008427      0.216860429     -0.124682275
| 18> 6       -1.878134593     -2.263576264     -0.226174110
| 19> 6       -1.047393367      2.694916127     -0.010521187
| 20> 8       -2.149358156      0.373685265     -1.109030460
| 21> 6       -1.959954329      0.088466639      4.043853326
| 22> 6        2.563975114     -0.472036290      0.827321041
| 23> 6       -3.429339698      0.383466398      3.911498304
| 24> 6       -4.357882437     -0.665151764      3.861034449
| 25> 6       -5.720303981     -0.404946376      3.727036131
| 26> 6       -6.173590576      0.913045230      3.646054169
| 27> 6       -5.259116234      1.963731549      3.709479729
| 28> 6       -3.896592747      1.701357686      3.845556206
| 29> 6        2.947332129     -0.418535949     -0.626677703
| 30> 6        2.849122090     -1.553712493     -1.439776644
| 31> 6        3.193914837     -1.490855425     -2.789167885
| 32> 6        3.649629452     -0.294691759     -3.342171594
| 33> 6        3.767124691      0.839639555     -2.536869050
| 34> 6        3.420115776      0.775096755     -1.188759966
| 35> 29       0.762615590     -0.297929199      3.103433367
| 36> 1        1.060809395      1.125570758     -0.490249380
| 37> 1        1.282144753      1.816693451      1.139156169
| 38> 1        0.562019442     -2.286353029      1.013203445
| 39> 1        0.625474966     -1.469957870     -0.564658196
| 40> 1       -2.388380269      1.633795324      2.012171731
| 41> 1       -0.794907803      2.096756422      2.648931390
| 42> 1       -2.859455282     -0.952979394      1.886207699
| 43> 1       -1.542979265     -1.999392305      2.482900008
| 44> 1       -1.527584007     -2.304364940     -1.266774112
| 45> 1       -1.658084049     -3.226775010      0.256748385
| 46> 1       -2.967387790     -2.119441708     -0.240935590
| 47> 1       -0.541329959      3.491126747      0.554612753
| 48> 1       -0.685920449      2.717256527     -1.047954819
| 49> 1       -2.126011097      2.904201722     -0.023141406
| 50> 1       -1.465522812      0.855639401      4.654163183
| 51> 1       -1.820336302     -0.891595027      4.532209211
| 52> 1        3.111730719      0.307739733      1.384496944
| 53> 1        2.816857760     -1.449891559      1.258022125
| 54> 1       -4.008156810     -1.698982023      3.931211899
| 55> 1       -6.431213583     -1.234048311      3.689134377
| 56> 1       -7.241716114      1.119644507      3.540658487
| 57> 1       -5.607002560      2.998114613      3.653573249
| 58> 1       -3.182000472      2.525899011      3.902793204
| 59> 1        2.498762245     -2.493104404     -1.005703221
| 60> 1        3.105684295     -2.384816267     -3.411355090
| 61> 1        3.920660395     -0.246155491     -4.399933954
| 62> 1        4.133884924      1.778248452     -2.959629633
| 63> 1        3.521086966      1.664693880     -0.560710733
| 64> 17       2.378930852      1.147378725      3.769733579
| 65> 17       0.563154814     -2.083243034      4.488466320
| 66> **                         ****END OF INPUT****
 Total Charge           Charge          ....    0
 Multiplicity           Mult            ....    2
 Number of Electrons    NEL             ....  251
Dispersion correction           -0.087174114
FINAL SINGLE POINT ENERGY     -3636.100753110938
Dispersion correction            ... done
Dispersion correction           -0.085993862
FINAL SINGLE POINT ENERGY     -3636.104951967053
Dispersion correction            ... done
Dispersion correction           -0.086241233
FINAL SINGLE POINT ENERGY     -3636.106207639485
Dispersion correction            ... done
FINAL SINGLE POINT ENERGY     -3636.106631031179
FINAL SINGLE POINT ENERGY     -3636.106907533239
FINAL SINGLE POINT ENERGY     -3636.107367137558
FINAL SINGLE POINT ENERGY     -3636.107534780371
FINAL SINGLE POINT ENERGY     -3636.107730686267
FINAL SINGLE POINT ENERGY     -3636.107522784052
FINAL SINGLE POINT ENERGY     -3636.107905577538
FINAL SINGLE POINT ENERGY     -3636.108318505096
FINAL SINGLE POINT ENERGY     -3636.108335504797
FINAL SINGLE POINT ENERGY     -3636.108342962250
FINAL SINGLE POINT ENERGY     -3636.108356150851
FINAL SINGLE POINT ENERGY     -3636.108342417781
FINAL SINGLE POINT ENERGY     -3636.108344453234
FINAL SINGLE POINT ENERGY     -3636.108318063128
Dispersion correction            ... done
Dispersion correction           -0.087193068
FINAL SINGLE POINT ENERGY     -3636.108228951561
Dispersion correction            ... done
Dispersion correction           -0.087192637
FINAL SINGLE POINT ENERGY     -3636.108229583025
Dispersion correction            ... done
                    ***********************HURRAY********************

CARTESIAN COORDINATES (ANGSTROEM)
---------------------------------
  C     -0.922559    1.424323    0.417838
  C      0.586255    1.132936    0.367182
  N      0.938548   -0.195942    0.879844
  C      0.172680   -1.272911    0.241776
  C     -1.347911   -1.049917    0.287681
  C     -1.483590    1.409922    1.849383
  N     -1.348178    0.109002    2.515216
  C     -1.898991   -0.995725    1.721953
  C     -1.615997    0.306227   -0.341119
  C     -2.038928   -2.171420   -0.469356
  C     -1.189254    2.782780   -0.208339
  O     -2.296524    0.474913   -1.323815
  C     -1.858121    0.123849    3.913238
  C      2.405176   -0.448020    0.867661
  C     -3.337180    0.370015    4.049084
  C     -4.239611   -0.701052    4.047139
  C     -5.611405   -0.473154    4.147812
  C     -6.096725    0.830463    4.258061
  C     -5.205012    1.903590    4.276604
  C     -3.833553    1.673507    4.175530
  C      3.035532   -0.485500   -0.498975
  C      3.126834   -1.689611   -1.208227
  C      3.690683   -1.720726   -2.483031
  C      4.175760   -0.547039   -3.061257
  C      4.103047    0.655241   -2.356719
  C      3.538704    0.684152   -1.082126
  Cu     0.597855   -0.242966    2.856018
  H      0.918061    1.222207   -0.682003
  H      1.127239    1.881489    0.966429
  H      0.423820   -2.215845    0.751660
  H      0.474160   -1.360307   -0.816445
  H     -2.550864    1.688257    1.801029
  H     -0.957769    2.159445    2.460768
  H     -2.996731   -0.894900    1.663521
  H     -1.664971   -1.936622    2.243713
  H     -1.689063   -2.207885   -1.510329
  H     -1.828222   -3.140471    0.005964
  H     -3.126524   -2.015541   -0.482656
  H     -0.678239    3.573845    0.359520
  H     -0.828740    2.807064   -1.246019
  H     -2.266624    2.998571   -0.218648
  H     -1.285165    0.901303    4.440661
  H     -1.584941   -0.848266    4.350662
  H      2.858265    0.344677    1.481889
  H      2.556505   -1.404464    1.390539
  H     -3.863689   -1.725323    3.975147
  H     -6.303923   -1.318370    4.145769
  H     -7.171682    1.009867    4.338795
  H     -5.578290    2.925722    4.376161
  H     -3.138422    2.517039    4.204330
  H      2.761394   -2.614593   -0.753812
  H      3.756742   -2.667436   -3.024660
  H      4.619837   -0.571057   -4.059480
  H      4.493190    1.575193   -2.798837
  H      3.496819    1.625893   -0.528066
  Cl     1.557628    1.569275    3.836822
  Cl     0.858585   -2.360106    3.642115

 Multiplicity           Mult            ....    2
 Number of Electrons    NEL             ....  251
 Basis Dimension        Dim             ....  571

ORBITAL ENERGIES
----------------
                 SPIN UP ORBITALS
  NO   OCC          E(Eh)            E(eV)
   0   1.0000    -323.464943     -8801.9286
   1   1.0000    -101.610496     -2764.9622
   2   1.0000    -101.610388     -2764.9592
   3   1.0000     -39.080985     -1063.4477
   4   1.0000     -34.269399      -932.5178
   5   1.0000     -34.268095      -932.4823
   6   1.0000     -34.240438      -931.7297
   7   1.0000     -19.226209      -523.1717
   8   1.0000     -14.475119      -393.8880
   9   1.0000     -14.475059      -393.8864
  10   1.0000     -10.337389      -281.2946
  11   1.0000     -10.288045      -279.9519
  12   1.0000     -10.288029      -279.9515
  13   1.0000     -10.288022      -279.9513
  14   1.0000     -10.287989      -279.9504
  15   1.0000     -10.285979      -279.8957
  16   1.0000     -10.285964      -279.8953
  17   1.0000     -10.275974      -279.6235
  18   1.0000     -10.275886      -279.6211
  19   1.0000     -10.256568      -279.0954
  20   1.0000     -10.256539      -279.0946
  21   1.0000     -10.247178      -278.8399
  22   1.0000     -10.247170      -278.8397
  23   1.0000     -10.247147      -278.8390
  24   1.0000     -10.247117      -278.8382
  25   1.0000     -10.245090      -278.7831
  26   1.0000     -10.245082      -278.7829
  27   1.0000     -10.244685      -278.7721
  28   1.0000     -10.244680      -278.7719
  29   1.0000     -10.244463      -278.7660
  30   1.0000     -10.244455      -278.7658
  31   1.0000     -10.234921      -278.5064
  32   1.0000     -10.234770      -278.5022
  33   1.0000      -9.459861      -257.4159
  34   1.0000      -9.459764      -257.4133
  35   1.0000      -7.196749      -195.8335
  36   1.0000      -7.196667      -195.8313
  37   1.0000      -7.194412      -195.7699
  38   1.0000      -7.194330      -195.7677
  39   1.0000      -7.193877      -195.7554
  40   1.0000      -7.193789      -195.7530
  41   1.0000      -4.471298      -121.6702
  42   1.0000      -2.967953       -80.7621
  43   1.0000      -2.965176       -80.6866
  44   1.0000      -2.913346       -79.2762
  45   1.0000      -1.086846       -29.5746
  46   1.0000      -1.020158       -27.7599
  47   1.0000      -0.998631       -27.1741
  48   1.0000      -0.889670       -24.2092
  49   1.0000      -0.885486       -24.0953
  50   1.0000      -0.864632       -23.5278
  51   1.0000      -0.858918       -23.3723
  52   1.0000      -0.799220       -21.7479
  53   1.0000      -0.791766       -21.5450
  54   1.0000      -0.770141       -20.9566
  55   1.0000      -0.769306       -20.9339
  56   1.0000      -0.763037       -20.7633
  57   1.0000      -0.759250       -20.6602
  58   1.0000      -0.752650       -20.4806
  59   1.0000      -0.735461       -20.0129
  60   1.0000      -0.729701       -19.8562
  61   1.0000      -0.729413       -19.8483
  62   1.0000      -0.695840       -18.9348
  63   1.0000      -0.655517       -17.8375
  64   1.0000      -0.639392       -17.3987
  65   1.0000      -0.630966       -17.1695
  66   1.0000      -0.627139       -17.0653
  67   1.0000      -0.615254       -16.7419
  68   1.0000      -0.608971       -16.5710
  69   1.0000      -0.604623       -16.4526
  70   1.0000      -0.580391       -15.7932
  71   1.0000      -0.545183       -14.8352
  72   1.0000      -0.543728       -14.7956
  73   1.0000      -0.542367       -14.7586
  74   1.0000      -0.532677       -14.4949
  75   1.0000      -0.515835       -14.0366
  76   1.0000      -0.513980       -13.9861
  77   1.0000      -0.512470       -13.9450
  78   1.0000      -0.491099       -13.3635
  79   1.0000      -0.490461       -13.3461
  80   1.0000      -0.483972       -13.1695
  81   1.0000      -0.483696       -13.1620
  82   1.0000      -0.476988       -12.9795
  83   1.0000      -0.474721       -12.9178
  84   1.0000      -0.466511       -12.6944
  85   1.0000      -0.449896       -12.2423
  86   1.0000      -0.441434       -12.0120
  87   1.0000      -0.439276       -11.9533
  88   1.0000      -0.439231       -11.9521
  89   1.0000      -0.438081       -11.9208
  90   1.0000      -0.424205       -11.5432
  91   1.0000      -0.424125       -11.5410
  92   1.0000      -0.422806       -11.5051
  93   1.0000      -0.419847       -11.4246
  94   1.0000      -0.416700       -11.3390
  95   1.0000      -0.407375       -11.0852
  96   1.0000      -0.406179       -11.0527
  97   1.0000      -0.404927       -11.0186
  98   1.0000      -0.404119       -10.9966
  99   1.0000      -0.401675       -10.9301
 100   1.0000      -0.400278       -10.8921
 101   1.0000      -0.392853       -10.6901
 102   1.0000      -0.390335       -10.6215
 103   1.0000      -0.389965       -10.6115
 104   1.0000      -0.385856       -10.4997
 105   1.0000      -0.380795       -10.3620
 106   1.0000      -0.373754       -10.1704
 107   1.0000      -0.371094       -10.0980
 108   1.0000      -0.370874       -10.0920
 109   1.0000      -0.365917        -9.9571
 110   1.0000      -0.359892        -9.7932
 111   1.0000      -0.356710        -9.7066
 112   1.0000      -0.356502        -9.7009
 113   1.0000      -0.344274        -9.3682
 114   1.0000      -0.306248        -8.3334
 115   1.0000      -0.297959        -8.1079
 116   1.0000      -0.292550        -7.9607
 117   1.0000      -0.278992        -7.5918
 118   1.0000      -0.277354        -7.5472
 119   1.0000      -0.276515        -7.5244
 120   1.0000      -0.276149        -7.5144
 121   1.0000      -0.276096        -7.5130
 122   1.0000      -0.275387        -7.4937
 123   1.0000      -0.270634        -7.3643
 124   1.0000      -0.270088        -7.3495
 125   1.0000      -0.269556        -7.3350
 126   0.0000      -0.033699        -0.9170
 127   0.0000      -0.022185        -0.6037
 128   0.0000      -0.019410        -0.5282
 129   0.0000      -0.014689        -0.3997
 130   0.0000      -0.013178        -0.3586

                 SPIN DOWN ORBITALS
  NO   OCC          E(Eh)            E(eV)
   0   1.0000    -323.464729     -8801.9228
   1   1.0000    -101.610409     -2764.9598
   2   1.0000    -101.610300     -2764.9568
   3   1.0000     -39.062973     -1062.9575
   4   1.0000     -34.249195      -931.9680
   5   1.0000     -34.248001      -931.9355
   6   1.0000     -34.235926      -931.6069
   7   1.0000     -19.226186      -523.1711
   8   1.0000     -14.470572      -393.7643
   9   1.0000     -14.470521      -393.7629
  10   1.0000     -10.337392      -281.2947
  11   1.0000     -10.288214      -279.9565
  12   1.0000     -10.288199      -279.9561
  13   1.0000     -10.288192      -279.9559
  14   1.0000     -10.288158      -279.9550
  15   1.0000     -10.286112      -279.8993
  16   1.0000     -10.286098      -279.8990
  17   1.0000     -10.275913      -279.6218
  18   1.0000     -10.275825      -279.6194
  19   1.0000     -10.256256      -279.0869
  20   1.0000     -10.256225      -279.0861
  21   1.0000     -10.247189      -278.8402
  22   1.0000     -10.247182      -278.8400
  23   1.0000     -10.247158      -278.8393
  24   1.0000     -10.247128      -278.8385
  25   1.0000     -10.245090      -278.7831
  26   1.0000     -10.245082      -278.7829
  27   1.0000     -10.244669      -278.7716
  28   1.0000     -10.244664      -278.7715
  29   1.0000     -10.244456      -278.7658
  30   1.0000     -10.244449      -278.7656
  31   1.0000     -10.234929      -278.5066
  32   1.0000     -10.234777      -278.5025
  33   1.0000      -9.459779      -257.4137
  34   1.0000      -9.459682      -257.4110
  35   1.0000      -7.196770      -195.8341
  36   1.0000      -7.196687      -195.8318
  37   1.0000      -7.194041      -195.7598
  38   1.0000      -7.193959      -195.7576
  39   1.0000      -7.193841      -195.7544
  40   1.0000      -7.193753      -195.7520
  41   1.0000      -4.432850      -120.6240
  42   1.0000      -2.911927       -79.2376
  43   1.0000      -2.909414       -79.1692
  44   1.0000      -2.901436       -78.9521
  45   1.0000      -1.086763       -29.5723
  46   1.0000      -1.014892       -27.6166
  47   1.0000      -0.992434       -27.0055
  48   1.0000      -0.889435       -24.2028
  49   1.0000      -0.885178       -24.0869
  50   1.0000      -0.863505       -23.4972
  51   1.0000      -0.858708       -23.3666
  52   1.0000      -0.798581       -21.7305
  53   1.0000      -0.790849       -21.5201
  54   1.0000      -0.770059       -20.9544
  55   1.0000      -0.769271       -20.9329
  56   1.0000      -0.762330       -20.7441
  57   1.0000      -0.758599       -20.6425
  58   1.0000      -0.751886       -20.4599
  59   1.0000      -0.734630       -19.9903
  60   1.0000      -0.729245       -19.8438
  61   1.0000      -0.729047       -19.8384
  62   1.0000      -0.695483       -18.9251
  63   1.0000      -0.652226       -17.7480
  64   1.0000      -0.637728       -17.3534
  65   1.0000      -0.630836       -17.1659
  66   1.0000      -0.627078       -17.0637
  67   1.0000      -0.614932       -16.7331
  68   1.0000      -0.608261       -16.5516
  69   1.0000      -0.603853       -16.4317
  70   1.0000      -0.574394       -15.6301
  71   1.0000      -0.544189       -14.8081
  72   1.0000      -0.541667       -14.7395
  73   1.0000      -0.540819       -14.7164
  74   1.0000      -0.532160       -14.4808
  75   1.0000      -0.513723       -13.9791
  76   1.0000      -0.511139       -13.9088
  77   1.0000      -0.501457       -13.6453
  78   1.0000      -0.490286       -13.3414
  79   1.0000      -0.488910       -13.3039
  80   1.0000      -0.483424       -13.1546
  81   1.0000      -0.483416       -13.1544
  82   1.0000      -0.475818       -12.9477
  83   1.0000      -0.474066       -12.9000
  84   1.0000      -0.459878       -12.5139
  85   1.0000      -0.449046       -12.2192
  86   1.0000      -0.439212       -11.9516
  87   1.0000      -0.439163       -11.9502
  88   1.0000      -0.436977       -11.8908
  89   1.0000      -0.425824       -11.5873
  90   1.0000      -0.423986       -11.5372
  91   1.0000      -0.423179       -11.5153
  92   1.0000      -0.421216       -11.4619
  93   1.0000      -0.415853       -11.3159
  94   1.0000      -0.406225       -11.0539
  95   1.0000      -0.404866       -11.0170
  96   1.0000      -0.400573       -10.9002
  97   1.0000      -0.396726       -10.7955
  98   1.0000      -0.393334       -10.7032
  99   1.0000      -0.390254       -10.6193
 100   1.0000      -0.389126       -10.5886
 101   1.0000      -0.388049       -10.5593
 102   1.0000      -0.384489       -10.4625
 103   1.0000      -0.377124       -10.2621
 104   1.0000      -0.374772       -10.1981
 105   1.0000      -0.373849       -10.1729
 106   1.0000      -0.372176       -10.1274
 107   1.0000      -0.369505       -10.0548
 108   1.0000      -0.366355        -9.9690
 109   1.0000      -0.359087        -9.7713
 110   1.0000      -0.356496        -9.7008
 111   1.0000      -0.356032        -9.6881
 112   1.0000      -0.338352        -9.2070
 113   1.0000      -0.325175        -8.8485
 114   1.0000      -0.300152        -8.1675
 115   1.0000      -0.296874        -8.0784
 116   1.0000      -0.289151        -7.8682
 117   1.0000      -0.276553        -7.5254
 118   1.0000      -0.275760        -7.5038
 119   1.0000      -0.275662        -7.5011
 120   1.0000      -0.275257        -7.4901
 121   1.0000      -0.275127        -7.4866
 122   1.0000      -0.273408        -7.4398
 123   1.0000      -0.268259        -7.2997
 124   1.0000      -0.262118        -7.1326
 125   0.0000      -0.137895        -3.7523
 126   0.0000      -0.033280        -0.9056
 127   0.0000      -0.021768        -0.5923
 128   0.0000      -0.018776        -0.5109
 129   0.0000      -0.014686        -0.3996

MULLIKEN ATOMIC CHARGES AND SPIN POPULATIONS
--------------------------------------------
   0 C :   -0.437663    0.002138
   1 C :    0.219113   -0.009308
   2 N :   -0.537657    0.161166
   3 C :    0.218771   -0.009324
   4 C :   -0.436163    0.002127
   5 C :    0.218845   -0.009307
   6 N :   -0.537409    0.160813
   7 C :    0.217927   -0.009281
   8 C :    0.201033    0.000509
   9 C :    0.050337   -0.000204
  10 C :    0.050129   -0.000205
  11 O :   -0.228734    0.000941
  12 C :    0.213777   -0.008676
  13 C :    0.213197   -0.008740
  14 C :   -0.142160    0.012040
  15 C :   -0.020081   -0.000915
  16 C :   -0.038250    0.000873
  17 C :   -0.029335   -0.000665
  18 C :   -0.038208    0.000871
  19 C :   -0.019901   -0.000914
  20 C :   -0.140966    0.012110
  21 C :   -0.020193   -0.000947
  22 C :   -0.038557    0.000889
  23 C :   -0.029257   -0.000692
  24 C :   -0.038363    0.000889
  25 C :   -0.020171   -0.000936
  26 Cu:    0.430541    0.609913
  27 H :    0.086177    0.012230
  28 H :    0.066483    0.002837
  29 H :    0.066880    0.002865
  30 H :    0.086003    0.012351
  31 H :    0.086327    0.012322
  32 H :    0.066774    0.002868
  33 H :    0.086460    0.012198
  34 H :    0.065801    0.002839
  35 H :    0.061725   -0.000026
  36 H :    0.063315   -0.000009
  37 H :    0.061902   -0.000028
  38 H :    0.063194   -0.000009
  39 H :    0.061824   -0.000028
  40 H :    0.061807   -0.000026
  41 H :    0.065521    0.003085
  42 H :    0.064090    0.003154
  43 H :    0.064369    0.003171
  44 H :    0.065132    0.003123
  45 H :    0.043320    0.000313
  46 H :    0.049325    0.000079
  47 H :    0.050949    0.000033
  48 H :    0.049317    0.000078
  49 H :    0.043537    0.000313
  50 H :    0.043543    0.000316
  51 H :    0.049425    0.000078
  52 H :    0.050990    0.000034
  53 H :    0.049376    0.000080
  54 H :    0.043535    0.000313
  55 Cl:   -0.499001    0.010149
  56 Cl:   -0.498706    0.010132
Sum of atomic charges         :   -0.0000000

LOEWDIN ATOMIC CHARGES AND SPIN POPULATIONS
-------------------------------------------
   0 C :   -0.097225    0.002102
   1 C :    0.048735   -0.002592
   2 N :   -0.013758    0.145866
   3 C :    0.048880   -0.002558
   4 C :   -0.097050    0.002106
   5 C :    0.048848   -0.002561
   6 N :   -0.013882    0.145568
   7 C :    0.048597   -0.002595
   8 C :    0.111507    0.000177
   9 C :   -0.041007   -0.000197
  10 C :   -0.041104   -0.000197
  11 O :   -0.154643    0.000831
  12 C :    0.041881   -0.001725
  13 C :    0.041721   -0.001747
  14 C :   -0.060181    0.010030
  15 C :   -0.027286   -0.000284
  16 C :   -0.033347    0.000624
  17 C :   -0.030436   -0.000443
  18 C :   -0.033333    0.000622
  19 C :   -0.027234   -0.000287
  20 C :   -0.060107    0.010084
  21 C :   -0.027325   -0.000309
  22 C :   -0.033398    0.000632
  23 C :   -0.030455   -0.000463
  24 C :   -0.033422    0.000633
  25 C :   -0.027228   -0.000296
  26 Cu:    0.140704    0.618101
  27 H :    0.042194    0.008880
  28 H :    0.037524    0.002054
  29 H :    0.037825    0.002072
  30 H :    0.042139    0.008967
  31 H :    0.042345    0.008943
  32 H :    0.037712    0.002073
  33 H :    0.042171    0.008851
  34 H :    0.037154    0.002053
  35 H :    0.041680    0.000004
  36 H :    0.043212   -0.000008
  37 H :    0.041696    0.000002
  38 H :    0.043122   -0.000008
  39 H :    0.041694    0.000003
  40 H :    0.041684    0.000004
  41 H :    0.039934    0.002287
  42 H :    0.038955    0.002321
  43 H :    0.039167    0.002334
  44 H :    0.039640    0.002320
  45 H :    0.043725    0.000234
  46 H :    0.045755    0.000080
  47 H :    0.045223    0.000006
  48 H :    0.045739    0.000079
  49 H :    0.043876    0.000234
  50 H :    0.043837    0.000235
  51 H :    0.045784    0.000079
  52 H :    0.045240    0.000006
  53 H :    0.045763    0.000081
  54 H :    0.043884    0.000233
  55 Cl:   -0.413658    0.012238
  56 Cl:   -0.413470    0.012220

  Mayer bond orders larger than 0.100000
B(  0-C ,  1-C ) :   0.9880 B(  0-C ,  5-C ) :   0.9879 B(  0-C ,  8-C ) :   0.8813
B(  0-C , 10-C ) :   1.0786 B(  1-C ,  2-N ) :   0.8604 B(  1-C , 27-H ) :   0.9206
B(  1-C , 28-H ) :   0.9284 B(  2-N ,  3-C ) :   0.8600 B(  2-N , 13-C ) :   0.8637
B(  2-N , 26-Cu) :   0.5430 B(  3-C ,  4-C ) :   0.9880 B(  3-C , 29-H ) :   0.9285
B(  3-C , 30-H ) :   0.9206 B(  4-C ,  7-C ) :   0.9881 B(  4-C ,  8-C ) :   0.8814
B(  4-C ,  9-C ) :   1.0784 B(  5-C ,  6-N ) :   0.8602 B(  5-C , 31-H ) :   0.9203
B(  5-C , 32-H ) :   0.9286 B(  6-N ,  7-C ) :   0.8606 B(  6-N , 12-C ) :   0.8640
B(  6-N , 26-Cu) :   0.5422 B(  7-C , 33-H ) :   0.9204 B(  7-C , 34-H ) :   0.9283
B(  8-C , 11-O ) :   2.2089 B(  9-C , 35-H ) :   0.9540 B(  9-C , 36-H ) :   0.9573
B(  9-C , 37-H ) :   0.9541 B( 10-C , 38-H ) :   0.9573 B( 10-C , 39-H ) :   0.9541
B( 10-C , 40-H ) :   0.9540 B( 12-C , 14-C ) :   1.0320 B( 12-C , 41-H ) :   0.9250
B( 12-C , 42-H ) :   0.9250 B( 13-C , 20-C ) :   1.0318 B( 13-C , 43-H ) :   0.9246
B( 13-C , 44-H ) :   0.9249 B( 14-C , 15-C ) :   1.3822 B( 14-C , 19-C ) :   1.3828
B( 15-C , 16-C ) :   1.3890 B( 15-C , 45-H ) :   0.9866 B( 16-C , 17-C ) :   1.3827
B( 16-C , 46-H ) :   0.9877 B( 17-C , 18-C ) :   1.3828 B( 17-C , 47-H ) :   0.9895
B( 18-C , 19-C ) :   1.3888 B( 18-C , 48-H ) :   0.9876 B( 19-C , 49-H ) :   0.9866
B( 20-C , 21-C ) :   1.3824 B( 20-C , 25-C ) :   1.3827 B( 21-C , 22-C ) :   1.3890
B( 21-C , 50-H ) :   0.9866 B( 22-C , 23-C ) :   1.3828 B( 22-C , 51-H ) :   0.9876
B( 23-C , 24-C ) :   1.3827 B( 23-C , 52-H ) :   0.9895 B( 24-C , 25-C ) :   1.3888
B( 24-C , 53-H ) :   0.9877 B( 25-C , 54-H ) :   0.9866 B( 26-Cu, 55-Cl) :   0.6594
B( 26-Cu, 56-Cl) :   0.6594

Dispersion correction           -0.087190628
FINAL SINGLE POINT ENERGY     -3636.108257452232

DIPOLE MOMENT
-------------
                                X             Y             Z
Electronic contribution:     17.92336      -4.44440      25.90374
Nuclear contribution   :    -20.23858       5.02365     -29.25413
                        -----------------------------------------
Total Dipole Moment    :     -2.31522       0.57925      -3.35039
                        -----------------------------------------
Magnitude (a.u.)       :      4.11350
Magnitude (Debye)      :     10.45569

Rotational constants in cm-1:     0.008029     0.003117     0.002853
Rotational constants in MHz :   240.702332    93.439343    85.523510

                             ****ORCA TERMINATED NORMALLY****
TOTAL RUN TIME: 0 days 17 hours 46 minutes 24 seconds 648 msec
