                         Program Version 4.2.0 -  RELEASE  -
|  1> ! PBE0 Grid4 D3BJ def2-svp
|  2> ! TightOpt
|  3> ! CPCM(water)
|  4>
|  5> %pal nprocs 1
|  6> end
|  7>
|  8> * xyz 2 2
|  9> 6       -0.828512844     -1.705762970      1.716789128
| 10> 6        0.670705710     -2.020365969      1.654602238
| 11> 7        1.478932072     -0.895028809      1.159842454
| 12> 6        1.214630576      0.349365102      1.907824289
| 13> 6       -0.268977340      0.730791238      1.989873516
| 14> 6       -1.405417241     -1.368504950      0.336032365
| 15> 7       -0.820479611     -0.165592258     -0.287034583
| 16> 6       -0.873275352      1.002042560      0.607038588
| 17> 6       -0.999454864     -0.465429819      2.580013869
| 18> 6       -0.418181496      1.970561938      2.855373442
| 19> 6       -1.569792424     -2.902605038      2.288166781
| 20> 8       -1.633961006     -0.434491839      3.603397746
| 21> 6       -1.497001209      0.119253758     -1.577342142
| 22> 6        2.928631896     -1.215051464      1.160412831
| 23> 6       -2.925040339      0.437191214     -1.251812629
| 24> 6       -3.396652342      1.744718746     -1.147835890
| 25> 6       -4.689429178      1.984282142     -0.680247738
| 26> 6       -5.518798238      0.924954945     -0.302055815
| 27> 6       -5.065426639     -0.383738148     -0.414263040
| 28> 6       -3.765304344     -0.639418614     -0.885497190
| 29> 6        3.310404915     -1.476597112      2.585700089
| 30> 6        3.409522850     -0.361681072      3.449338270
| 31> 6        3.606028310     -0.559227004      4.827741254
| 32> 6        3.695140413     -1.848321776      5.338922001
| 33> 6        3.611586750     -2.946315305      4.478296384
| 34> 6        3.414350608     -2.764288079      3.108899924
| 35> 29       1.098894067     -0.566653054     -0.805797834
| 36> 1        1.026931307     -2.285274457      2.665658393
| 37> 1        0.848022988     -2.889994999      1.003608288
| 38> 1        1.783707647      1.170553505      1.446159894
| 39> 1        1.604018430      0.217807866      2.932310740
| 40> 1       -2.492071319     -1.202085017      0.437808368
| 41> 1       -1.267998239     -2.224161130     -0.342532659
| 42> 1       -1.929786530      1.300472286      0.726761206
| 43> 1       -0.347021638      1.837893651      0.121212287
| 44> 1       -0.018738338      1.785987520      3.861943101
| 45> 1        0.123655269      2.817467301      2.410523464
| 46> 1       -1.477866274      2.242661351      2.954332553
| 47> 1       -1.437692534     -3.781302721      1.640708294
| 48> 1       -1.192352291     -3.143819438      3.291229974
| 49> 1       -2.643268721     -2.684811104      2.371793624
| 50> 1       -1.429500661     -0.782413374     -2.201374270
| 51> 1       -0.981253625      0.941240614     -2.096084083
| 52> 1        3.121559225     -2.074342210      0.500730325
| 53> 1        3.467691283     -0.343216228      0.764453713
| 54> 1       -2.750455564      2.579263019     -1.428936723
| 55> 1       -5.052014425      3.011765663     -0.603689691
| 56> 1       -6.528485801      1.122709707      0.062579730
| 57> 1       -5.734591961     -1.209548549     -0.168798330
| 58> 1       -3.478310909     -1.667709459     -1.157426642
| 59> 1        3.533823995      0.645824526      3.021044146
| 60> 1        3.725052639      0.295347839      5.495246755
| 61> 1        3.850002692     -2.001106951      6.408603708
| 62> 1        3.694769426     -3.958583506      4.880125083
| 63> 1        3.336786412     -3.627239961      2.443929605
| 64> **                         ****END OF INPUT****
 Total Charge           Charge          ....    2
 Multiplicity           Mult            ....    2
 Number of Electrons    NEL             ....  215
Dispersion correction           -0.080388726
FINAL SINGLE POINT ENERGY     -2715.784055617082
Dispersion correction            ... done
Dispersion correction           -0.077947376
FINAL SINGLE POINT ENERGY     -2715.806371751346
Dispersion correction            ... done
Dispersion correction           -0.077526873
FINAL SINGLE POINT ENERGY     -2715.812105668030
Dispersion correction            ... done
FINAL SINGLE POINT ENERGY     -2715.815842126660
FINAL SINGLE POINT ENERGY     -2715.818208790943
FINAL SINGLE POINT ENERGY     -2715.818195595217
FINAL SINGLE POINT ENERGY     -2715.818360813455
FINAL SINGLE POINT ENERGY     -2715.818495750758
FINAL SINGLE POINT ENERGY     -2715.818394918872
FINAL SINGLE POINT ENERGY     -2715.818385498851
FINAL SINGLE POINT ENERGY     -2715.818395754813
FINAL SINGLE POINT ENERGY     -2715.818389684373
FINAL SINGLE POINT ENERGY     -2715.818465352284
FINAL SINGLE POINT ENERGY     -2715.818470745428
FINAL SINGLE POINT ENERGY     -2715.818475820326
FINAL SINGLE POINT ENERGY     -2715.818485229671
Dispersion correction            ... done
Dispersion correction           -0.077019727
FINAL SINGLE POINT ENERGY     -2715.818506889701
Dispersion correction            ... done
Dispersion correction           -0.077013440
FINAL SINGLE POINT ENERGY     -2715.818522671344
Dispersion correction            ... done
                    ***********************HURRAY********************

CARTESIAN COORDINATES (ANGSTROEM)
---------------------------------
  C     -0.980295   -1.672980    2.032397
  C      0.525977   -1.967368    1.957248
  N      1.322823   -0.833495    1.457987
  C      1.058665    0.413875    2.195414
  C     -0.433277    0.773250    2.277449
  C     -1.593825   -1.363992    0.658006
  N     -1.027051   -0.164365    0.018402
  C     -1.058521    1.018635    0.895447
  C     -1.148908   -0.424537    2.886708
  C     -0.596754    2.023479    3.125469
  C     -1.690470   -2.874173    2.633643
  O     -1.770538   -0.388779    3.916136
  C     -1.558510    0.091246   -1.356489
  C      2.778744   -1.144249    1.304038
  C     -3.030520    0.408778   -1.392733
  C     -3.469517    1.732621   -1.274217
  C     -4.832911    2.022180   -1.278383
  C     -5.765456    0.992263   -1.406827
  C     -5.332958   -0.327570   -1.540419
  C     -3.970014   -0.618984   -1.535575
  C      3.471409   -1.472082    2.600779
  C      4.040078   -0.454507    3.375872
  C      4.653219   -0.757511    4.590383
  C      4.707265   -2.078840    5.035339
  C      4.155344   -3.098948    4.259700
  C      3.541153   -2.797536    3.045491
  Cu     0.835168   -0.546850   -0.409444
  H      0.882741   -2.217437    2.970948
  H      0.715967   -2.840031    1.314622
  H      1.625973    1.229835    1.722158
  H      1.443418    0.292174    3.222416
  H     -2.677268   -1.201342    0.789440
  H     -1.466300   -2.219755   -0.022672
  H     -2.113204    1.310415    1.037669
  H     -0.548460    1.849642    0.384100
  H     -0.185165    1.859307    4.130444
  H     -0.073972    2.873107    2.663831
  H     -1.660222    2.277428    3.229876
  H     -1.553785   -3.759937    1.997253
  H     -1.291365   -3.092614    3.633289
  H     -2.765675   -2.672621    2.732021
  H     -1.352042   -0.812663   -1.950112
  H     -0.978759    0.929882   -1.771010
  H      2.851877   -1.997191    0.611329
  H      3.243121   -0.263999    0.834498
  H     -2.741961    2.544009   -1.188458
  H     -5.167155    3.058138   -1.186502
  H     -6.834070    1.220095   -1.411254
  H     -6.059443   -1.135307   -1.654949
  H     -3.634659   -1.652764   -1.654375
  H      4.014144    0.580350    3.024324
  H      5.095645    0.042548    5.188335
  H      5.189233   -2.315866    5.986883
  H      4.207274   -4.136366    4.598001
  H      3.121530   -3.601125    2.434374

 Multiplicity           Mult            ....    2
 Number of Electrons    NEL             ....  215
 Basis Dimension        Dim             ....  535

ORBITAL ENERGIES
----------------
                 SPIN UP ORBITALS
  NO   OCC          E(Eh)            E(eV)
   0   1.0000    -323.505342     -8803.0279
   1   1.0000     -39.114518     -1064.3601
   2   1.0000     -34.298749      -933.3164
   3   1.0000     -34.298484      -933.3092
   4   1.0000     -34.283640      -932.9053
   5   1.0000     -19.241800      -523.5960
   6   1.0000     -14.529159      -395.3585
   7   1.0000     -14.528928      -395.3522
   8   1.0000     -10.354585      -281.7626
   9   1.0000     -10.317517      -280.7539
  10   1.0000     -10.317416      -280.7512
  11   1.0000     -10.317374      -280.7500
  12   1.0000     -10.317340      -280.7491
  13   1.0000     -10.317300      -280.7480
  14   1.0000     -10.317297      -280.7479
  15   1.0000     -10.299064      -280.2518
  16   1.0000     -10.298994      -280.2499
  17   1.0000     -10.270722      -279.4806
  18   1.0000     -10.270658      -279.4788
  19   1.0000     -10.256821      -279.1023
  20   1.0000     -10.256761      -279.1007
  21   1.0000     -10.256733      -279.0999
  22   1.0000     -10.256682      -279.0985
  23   1.0000     -10.252133      -278.9747
  24   1.0000     -10.252122      -278.9744
  25   1.0000     -10.251589      -278.9599
  26   1.0000     -10.251582      -278.9597
  27   1.0000     -10.251422      -278.9554
  28   1.0000     -10.251418      -278.9553
  29   1.0000     -10.245793      -278.8022
  30   1.0000     -10.245763      -278.8014
  31   1.0000      -4.514940      -122.8578
  32   1.0000      -3.004985       -81.7698
  33   1.0000      -3.003949       -81.7416
  34   1.0000      -2.972843       -80.8952
  35   1.0000      -1.104209       -30.0470
  36   1.0000      -1.059472       -28.8297
  37   1.0000      -1.039258       -28.2796
  38   1.0000      -0.905265       -24.6335
  39   1.0000      -0.896374       -24.3916
  40   1.0000      -0.884856       -24.0782
  41   1.0000      -0.883225       -24.0338
  42   1.0000      -0.818813       -22.2810
  43   1.0000      -0.808638       -22.0041
  44   1.0000      -0.787023       -21.4160
  45   1.0000      -0.778101       -21.1732
  46   1.0000      -0.775618       -21.1056
  47   1.0000      -0.757685       -20.6177
  48   1.0000      -0.752589       -20.4790
  49   1.0000      -0.747892       -20.3512
  50   1.0000      -0.713835       -19.4244
  51   1.0000      -0.680603       -18.5201
  52   1.0000      -0.662823       -18.0363
  53   1.0000      -0.644713       -17.5435
  54   1.0000      -0.636801       -17.3282
  55   1.0000      -0.630665       -17.1613
  56   1.0000      -0.628612       -17.1054
  57   1.0000      -0.619881       -16.8678
  58   1.0000      -0.612492       -16.6668
  59   1.0000      -0.571504       -15.5514
  60   1.0000      -0.566876       -15.4255
  61   1.0000      -0.565075       -15.3765
  62   1.0000      -0.555661       -15.1203
  63   1.0000      -0.550819       -14.9885
  64   1.0000      -0.534972       -14.5573
  65   1.0000      -0.529295       -14.4029
  66   1.0000      -0.519252       -14.1296
  67   1.0000      -0.512433       -13.9440
  68   1.0000      -0.500138       -13.6094
  69   1.0000      -0.498656       -13.5691
  70   1.0000      -0.497377       -13.5343
  71   1.0000      -0.491399       -13.3716
  72   1.0000      -0.482590       -13.1319
  73   1.0000      -0.465488       -12.6666
  74   1.0000      -0.459948       -12.5158
  75   1.0000      -0.459287       -12.4978
  76   1.0000      -0.451572       -12.2879
  77   1.0000      -0.450804       -12.2670
  78   1.0000      -0.450696       -12.2641
  79   1.0000      -0.448271       -12.1981
  80   1.0000      -0.444180       -12.0868
  81   1.0000      -0.442324       -12.0363
  82   1.0000      -0.439875       -11.9696
  83   1.0000      -0.438425       -11.9302
  84   1.0000      -0.437994       -11.9184
  85   1.0000      -0.432286       -11.7631
  86   1.0000      -0.431025       -11.7288
  87   1.0000      -0.430500       -11.7145
  88   1.0000      -0.422511       -11.4971
  89   1.0000      -0.418382       -11.3848
  90   1.0000      -0.402848       -10.9620
  91   1.0000      -0.400332       -10.8936
  92   1.0000      -0.399411       -10.8685
  93   1.0000      -0.393480       -10.7071
  94   1.0000      -0.393090       -10.6965
  95   1.0000      -0.390086       -10.6148
  96   1.0000      -0.388031       -10.5589
  97   1.0000      -0.379970       -10.3395
  98   1.0000      -0.378590       -10.3020
  99   1.0000      -0.366617        -9.9762
 100   1.0000      -0.366442        -9.9714
 101   1.0000      -0.359861        -9.7923
 102   1.0000      -0.312368        -8.5000
 103   1.0000      -0.292207        -7.9514
 104   1.0000      -0.285371        -7.7653
 105   1.0000      -0.284648        -7.7457
 106   1.0000      -0.283819        -7.7231
 107   1.0000      -0.283133        -7.7045
 108   0.0000      -0.100888        -2.7453
 109   0.0000      -0.050657        -1.3784
 110   0.0000      -0.030561        -0.8316
 111   0.0000      -0.029573        -0.8047
 112   0.0000      -0.022358        -0.6084

                 SPIN DOWN ORBITALS
  NO   OCC          E(Eh)            E(eV)
   0   1.0000    -323.505187     -8803.0237
   1   1.0000     -39.102345     -1064.0289
   2   1.0000     -34.284941      -932.9407
   3   1.0000     -34.284866      -932.9386
   4   1.0000     -34.280494      -932.8197
   5   1.0000     -19.241774      -523.5953
   6   1.0000     -14.522550      -395.1787
   7   1.0000     -14.522360      -395.1735
   8   1.0000     -10.354600      -281.7630
   9   1.0000     -10.317583      -280.7557
  10   1.0000     -10.317551      -280.7548
  11   1.0000     -10.317534      -280.7544
  12   1.0000     -10.317503      -280.7535
  13   1.0000     -10.317465      -280.7525
  14   1.0000     -10.317329      -280.7488
  15   1.0000     -10.298938      -280.2484
  16   1.0000     -10.298869      -280.2465
  17   1.0000     -10.270119      -279.4642
  18   1.0000     -10.270065      -279.4627
  19   1.0000     -10.256824      -279.1024
  20   1.0000     -10.256767      -279.1008
  21   1.0000     -10.256740      -279.1001
  22   1.0000     -10.256689      -279.0987
  23   1.0000     -10.252133      -278.9747
  24   1.0000     -10.252122      -278.9744
  25   1.0000     -10.251548      -278.9588
  26   1.0000     -10.251540      -278.9586
  27   1.0000     -10.251393      -278.9546
  28   1.0000     -10.251390      -278.9545
  29   1.0000     -10.245808      -278.8026
  30   1.0000     -10.245779      -278.8018
  31   1.0000      -4.489490      -122.1652
  32   1.0000      -2.967525       -80.7505
  33   1.0000      -2.967162       -80.7406
  34   1.0000      -2.964613       -80.6712
  35   1.0000      -1.104010       -30.0416
  36   1.0000      -1.050830       -28.5945
  37   1.0000      -1.029246       -28.0072
  38   1.0000      -0.904402       -24.6100
  39   1.0000      -0.895737       -24.3742
  40   1.0000      -0.883299       -24.0358
  41   1.0000      -0.882655       -24.0183
  42   1.0000      -0.817525       -22.2460
  43   1.0000      -0.806890       -21.9566
  44   1.0000      -0.785755       -21.3815
  45   1.0000      -0.777979       -21.1699
  46   1.0000      -0.775233       -21.0952
  47   1.0000      -0.755920       -20.5696
  48   1.0000      -0.751793       -20.4573
  49   1.0000      -0.747127       -20.3304
  50   1.0000      -0.713380       -19.4121
  51   1.0000      -0.674930       -18.3658
  52   1.0000      -0.659281       -17.9400
  53   1.0000      -0.644290       -17.5320
  54   1.0000      -0.636621       -17.3233
  55   1.0000      -0.630275       -17.1507
  56   1.0000      -0.625392       -17.0178
  57   1.0000      -0.618584       -16.8325
  58   1.0000      -0.603603       -16.4249
  59   1.0000      -0.568863       -15.4796
  60   1.0000      -0.563081       -15.3222
  61   1.0000      -0.558593       -15.2001
  62   1.0000      -0.554733       -15.0951
  63   1.0000      -0.540903       -14.7187
  64   1.0000      -0.527646       -14.3580
  65   1.0000      -0.527022       -14.3410
  66   1.0000      -0.515809       -14.0359
  67   1.0000      -0.510976       -13.9044
  68   1.0000      -0.498084       -13.5536
  69   1.0000      -0.496835       -13.5196
  70   1.0000      -0.496268       -13.5041
  71   1.0000      -0.489141       -13.3102
  72   1.0000      -0.473937       -12.8965
  73   1.0000      -0.464595       -12.6423
  74   1.0000      -0.455879       -12.4051
  75   1.0000      -0.451101       -12.2751
  76   1.0000      -0.448755       -12.2112
  77   1.0000      -0.446848       -12.1594
  78   1.0000      -0.443700       -12.0737
  79   1.0000      -0.443326       -12.0635
  80   1.0000      -0.442193       -12.0327
  81   1.0000      -0.438003       -11.9187
  82   1.0000      -0.432933       -11.7807
  83   1.0000      -0.428476       -11.6594
  84   1.0000      -0.428137       -11.6502
  85   1.0000      -0.426785       -11.6134
  86   1.0000      -0.424591       -11.5537
  87   1.0000      -0.418713       -11.3937
  88   1.0000      -0.418070       -11.3763
  89   1.0000      -0.402762       -10.9597
  90   1.0000      -0.402454       -10.9513
  91   1.0000      -0.399724       -10.8770
  92   1.0000      -0.395490       -10.7618
  93   1.0000      -0.392665       -10.6850
  94   1.0000      -0.389129       -10.5887
  95   1.0000      -0.387101       -10.5335
  96   1.0000      -0.382162       -10.3992
  97   1.0000      -0.376438       -10.2434
  98   1.0000      -0.370258       -10.0752
  99   1.0000      -0.366428        -9.9710
 100   1.0000      -0.366240        -9.9659
 101   1.0000      -0.343781        -9.3548
 102   1.0000      -0.292050        -7.9471
 103   1.0000      -0.284811        -7.7501
 104   1.0000      -0.284175        -7.7328
 105   1.0000      -0.283845        -7.7238
 106   1.0000      -0.283144        -7.7047
 107   0.0000      -0.200419        -5.4537
 108   0.0000      -0.094517        -2.5719
 109   0.0000      -0.050285        -1.3683
 110   0.0000      -0.029619        -0.8060
 111   0.0000      -0.028457        -0.7744

MULLIKEN ATOMIC CHARGES AND SPIN POPULATIONS
--------------------------------------------
   0 C :   -0.444374    0.004619
   1 C :    0.189255   -0.010496
   2 N :   -0.556486    0.244975
   3 C :    0.189704   -0.010386
   4 C :   -0.446320    0.004602
   5 C :    0.190853   -0.010534
   6 N :   -0.557165    0.246693
   7 C :    0.191852   -0.010463
   8 C :    0.218725    0.000245
   9 C :    0.052980   -0.000378
  10 C :    0.052910   -0.000387
  11 O :   -0.203337    0.001105
  12 C :    0.161431   -0.009216
  13 C :    0.162790   -0.009012
  14 C :   -0.150601    0.025291
  15 C :   -0.011742   -0.001374
  16 C :   -0.033561    0.002062
  17 C :   -0.021184   -0.000870
  18 C :   -0.033252    0.002014
  19 C :   -0.013211   -0.001377
  20 C :   -0.151821    0.024879
  21 C :   -0.011553   -0.001281
  22 C :   -0.033817    0.002017
  23 C :   -0.021289   -0.000763
  24 C :   -0.032979    0.001921
  25 C :   -0.013723   -0.001304
  26 Cu:    0.856726    0.385295
  27 H :    0.125030    0.022369
  28 H :    0.121892    0.003210
  29 H :    0.122011    0.003193
  30 H :    0.123628    0.022676
  31 H :    0.124704    0.022665
  32 H :    0.122239    0.003237
  33 H :    0.124585    0.022770
  34 H :    0.122086    0.003261
  35 H :    0.074333   -0.000068
  36 H :    0.074659   -0.000007
  37 H :    0.074335   -0.000066
  38 H :    0.074676   -0.000007
  39 H :    0.074332   -0.000065
  40 H :    0.074385   -0.000063
  41 H :    0.122757    0.004004
  42 H :    0.123144    0.003676
  43 H :    0.122827    0.004173
  44 H :    0.122407    0.003338
  45 H :    0.052447    0.000670
  46 H :    0.055419    0.000237
  47 H :    0.056933    0.000123
  48 H :    0.055414    0.000239
  49 H :    0.052289    0.000662
  50 H :    0.052581    0.000665
  51 H :    0.055449    0.000233
  52 H :    0.056963    0.000117
  53 H :    0.055417    0.000237
  54 H :    0.052243    0.000645
Sum of atomic charges         :    2.0000000

LOEWDIN ATOMIC CHARGES AND SPIN POPULATIONS
-------------------------------------------
   0 C :   -0.097450    0.004613
   1 C :    0.054321   -0.000681
   2 N :    0.004521    0.216174
   3 C :    0.054467   -0.000491
   4 C :   -0.097479    0.004642
   5 C :    0.054703   -0.000586
   6 N :    0.005202    0.217695
   7 C :    0.055001   -0.000503
   8 C :    0.110775   -0.000189
   9 C :   -0.035703   -0.000403
  10 C :   -0.035678   -0.000407
  11 O :   -0.129200    0.000949
  12 C :    0.051524    0.002465
  13 C :    0.051814    0.002466
  14 C :   -0.064646    0.020194
  15 C :   -0.021120   -0.000075
  16 C :   -0.026294    0.001585
  17 C :   -0.019869   -0.000500
  18 C :   -0.026347    0.001549
  19 C :   -0.021203   -0.000117
  20 C :   -0.064969    0.019869
  21 C :   -0.021378    0.000005
  22 C :   -0.026312    0.001561
  23 C :   -0.019902   -0.000422
  24 C :   -0.026381    0.001486
  25 C :   -0.021152   -0.000100
  26 Cu:    0.770294    0.415169
  27 H :    0.063767    0.016637
  28 H :    0.062722    0.002664
  29 H :    0.063065    0.002663
  30 H :    0.063573    0.016807
  31 H :    0.064152    0.016855
  32 H :    0.062937    0.002695
  33 H :    0.064219    0.016912
  34 H :    0.063072    0.002716
  35 H :    0.048144   -0.000024
  36 H :    0.048574   -0.000014
  37 H :    0.048141   -0.000023
  38 H :    0.048599   -0.000014
  39 H :    0.048179   -0.000025
  40 H :    0.048173   -0.000023
  41 H :    0.064861    0.003470
  42 H :    0.065160    0.003167
  43 H :    0.064916    0.003622
  44 H :    0.064938    0.002863
  45 H :    0.048015    0.000519
  46 H :    0.049068    0.000235
  47 H :    0.048457    0.000070
  48 H :    0.049071    0.000235
  49 H :    0.048044    0.000503
  50 H :    0.047973    0.000526
  51 H :    0.049074    0.000230
  52 H :    0.048461    0.000068
  53 H :    0.049073    0.000232
  54 H :    0.048032    0.000486

  Mayer bond orders larger than 0.100000
B(  0-C ,  1-C ) :   0.9869 B(  0-C ,  5-C ) :   0.9869 B(  0-C ,  8-C ) :   0.8621
B(  0-C , 10-C ) :   1.0817 B(  1-C ,  2-N ) :   0.8293 B(  1-C , 27-H ) :   0.9096
B(  1-C , 28-H ) :   0.9385 B(  2-N ,  3-C ) :   0.8298 B(  2-N , 13-C ) :   0.8264
B(  2-N , 26-Cu) :   0.6165 B(  3-C ,  4-C ) :   0.9863 B(  3-C , 29-H ) :   0.9386
B(  3-C , 30-H ) :   0.9094 B(  4-C ,  7-C ) :   0.9866 B(  4-C ,  8-C ) :   0.8623
B(  4-C ,  9-C ) :   1.0814 B(  5-C ,  6-N ) :   0.8288 B(  5-C , 31-H ) :   0.9091
B(  5-C , 32-H ) :   0.9386 B(  6-N ,  7-C ) :   0.8292 B(  6-N , 12-C ) :   0.8262
B(  6-N , 26-Cu) :   0.6181 B(  7-C , 33-H ) :   0.9091 B(  7-C , 34-H ) :   0.9387
B(  8-C , 11-O ) :   2.2315 B(  9-C , 35-H ) :   0.9523 B(  9-C , 36-H ) :   0.9545
B(  9-C , 37-H ) :   0.9522 B( 10-C , 38-H ) :   0.9545 B( 10-C , 39-H ) :   0.9522
B( 10-C , 40-H ) :   0.9522 B( 12-C , 14-C ) :   1.0320 B( 12-C , 41-H ) :   0.9281
B( 12-C , 42-H ) :   0.9280 B( 13-C , 20-C ) :   1.0322 B( 13-C , 43-H ) :   0.9285
B( 13-C , 44-H ) :   0.9282 B( 14-C , 15-C ) :   1.3787 B( 14-C , 19-C ) :   1.3779
B( 15-C , 16-C ) :   1.3932 B( 15-C , 45-H ) :   0.9860 B( 16-C , 17-C ) :   1.3827
B( 16-C , 46-H ) :   0.9869 B( 17-C , 18-C ) :   1.3827 B( 17-C , 47-H ) :   0.9890
B( 18-C , 19-C ) :   1.3929 B( 18-C , 48-H ) :   0.9869 B( 19-C , 49-H ) :   0.9865
B( 20-C , 21-C ) :   1.3790 B( 20-C , 25-C ) :   1.3772 B( 21-C , 22-C ) :   1.3936
B( 21-C , 50-H ) :   0.9855 B( 22-C , 23-C ) :   1.3827 B( 22-C , 51-H ) :   0.9869
B( 23-C , 24-C ) :   1.3826 B( 23-C , 52-H ) :   0.9890 B( 24-C , 25-C ) :   1.3929
B( 24-C , 53-H ) :   0.9869 B( 25-C , 54-H ) :   0.9869

Dispersion correction           -0.077013804
FINAL SINGLE POINT ENERGY     -2715.818521150854

DIPOLE MOMENT
-------------
                                X             Y             Z
Electronic contribution:     11.73064      -0.55592     -19.46234
Nuclear contribution   :     -9.54467       0.48306      15.83674
                        -----------------------------------------
Total Dipole Moment    :      2.18597      -0.07287      -3.62560
                        -----------------------------------------
Magnitude (a.u.)       :      4.23424
Magnitude (Debye)      :     10.76257

Rotational constants in cm-1:     0.013712     0.003298     0.003179
Rotational constants in MHz :   411.074486    98.884151    95.294364

                             ****ORCA TERMINATED NORMALLY****
TOTAL RUN TIME: 1 days 4 hours 39 minutes 56 seconds 250 msec
