                         Program Version 4.2.0 -  RELEASE  -
|  1> ! PBE0 Grid4 D3BJ def2-svp
|  2> ! SP
|  3> ! CPCM(water)
|  4> %pal nprocs 1
|  5> end
|  6> * xyz -1 1
|  7> Cl 0. 0. 0.
|  8> **                         ****END OF INPUT****

CARTESIAN COORDINATES (ANGSTROEM)
---------------------------------
  Cl     0.000000    0.000000    0.000000

 Total Charge           Charge          ....   -1
 Multiplicity           Mult            ....    1
 Number of Electrons    NEL             ....   18
 Basis Dimension        Dim             ....   18

ORBITAL ENERGIES
----------------

  NO   OCC          E(Eh)            E(eV)
   0   2.0000    -101.509600     -2762.2166
   1   2.0000      -9.358585      -254.6600
   2   2.0000      -7.093997      -193.0375
   3   2.0000      -7.093997      -193.0375
   4   2.0000      -7.093997      -193.0375
   5   2.0000      -0.664351       -18.0779
   6   2.0000      -0.208593        -5.6761
   7   2.0000      -0.208593        -5.6761
   8   2.0000      -0.208593        -5.6761
   9   0.0000       0.541022        14.7220
  10   0.0000       0.929102        25.2822
  11   0.0000       0.929102        25.2822
  12   0.0000       0.929102        25.2822
  13   0.0000       0.929102        25.2822

MULLIKEN ATOMIC CHARGES
-----------------------
   0 Cl:   -1.000000
Sum of atomic charges:   -1.0000000

LOEWDIN ATOMIC CHARGES
----------------------
   0 Cl:   -1.000000

Dispersion correction            0.000000000
FINAL SINGLE POINT ENERGY      -460.053833033376

DIPOLE MOMENT
-------------
                                X             Y             Z
Electronic contribution:      0.00000      -0.00000      -0.00000
Nuclear contribution   :      0.00000       0.00000       0.00000
                        -----------------------------------------
Total Dipole Moment    :      0.00000      -0.00000      -0.00000
                        -----------------------------------------
Magnitude (a.u.)       :      0.00000
Magnitude (Debye)      :      0.00000

Rotational constants in cm-1:     0.000000     0.000000     0.000000
Rotational constants in MHz :     0.000000     0.000000     0.000000

                             ****ORCA TERMINATED NORMALLY****
TOTAL RUN TIME: 0 days 0 hours 0 minutes 3 seconds 987 msec
